<?xml version="1.0"?>
<VTKFile type="UnstructuredGrid"  version="0.1"  >
<UnstructuredGrid>
<Piece  NumberOfPoints="4225" NumberOfCells="8192">
<Points>
<DataArray  type="Float64"  NumberOfComponents="3"  format="ascii">0 0 0  0.015625 0 0  0.03125 0 0  0.046875 0 0  0.0625 0 0  0.078125 0 0  0.09375 0 0  0.109375 0 0  0.125 0 0  0.140625 0 0  0.15625 0 0  0.171875 0 0  0.1875 0 0  0.203125 0 0  0.21875 0 0  0.234375 0 0  0.25 0 0  0.265625 0 0  0.28125 0 0  0.296875 0 0  0.3125 0 0  0.328125 0 0  0.34375 0 0  0.359375 0 0  0.375 0 0  0.390625 0 0  0.40625 0 0  0.421875 0 0  0.4375 0 0  0.453125 0 0  0.46875 0 0  0.484375 0 0  0.5 0 0  0.515625 0 0  0.53125 0 0  0.546875 0 0  0.5625 0 0  0.578125 0 0  0.59375 0 0  0.609375 0 0  0.625 0 0  0.640625 0 0  0.65625 0 0  0.671875 0 0  0.6875 0 0  0.703125 0 0  0.71875 0 0  0.734375 0 0  0.75 0 0  0.765625 0 0  0.78125 0 0  0.796875 0 0  0.8125 0 0  0.828125 0 0  0.84375 0 0  0.859375 0 0  0.875 0 0  0.890625 0 0  0.90625 0 0  0.921875 0 0  0.9375 0 0  0.953125 0 0  0.96875 0 0  0.984375 0 0  1 0 0  0 0.015625 0  0.015625 0.015625 0  0.03125 0.015625 0  0.046875 0.015625 0  0.0625 0.015625 0  0.078125 0.015625 0  0.09375 0.015625 0  0.109375 0.015625 0  0.125 0.015625 0  0.140625 0.015625 0  0.15625 0.015625 0  0.171875 0.015625 0  0.1875 0.015625 0  0.203125 0.015625 0  0.21875 0.015625 0  0.234375 0.015625 0  0.25 0.015625 0  0.265625 0.015625 0  0.28125 0.015625 0  0.296875 0.015625 0  0.3125 0.015625 0  0.328125 0.015625 0  0.34375 0.015625 0  0.359375 0.015625 0  0.375 0.015625 0  0.390625 0.015625 0  0.40625 0.015625 0  0.421875 0.015625 0  0.4375 0.015625 0  0.453125 0.015625 0  0.46875 0.015625 0  0.484375 0.015625 0  0.5 0.015625 0  0.515625 0.015625 0  0.53125 0.015625 0  0.546875 0.015625 0  0.5625 0.015625 0  0.578125 0.015625 0  0.59375 0.015625 0  0.609375 0.015625 0  0.625 0.015625 0  0.640625 0.015625 0  0.65625 0.015625 0  0.671875 0.015625 0  0.6875 0.015625 0  0.703125 0.015625 0  0.71875 0.015625 0  0.734375 0.015625 0  0.75 0.015625 0  0.765625 0.015625 0  0.78125 0.015625 0  0.796875 0.015625 0  0.8125 0.015625 0  0.828125 0.015625 0  0.84375 0.015625 0  0.859375 0.015625 0  0.875 0.015625 0  0.890625 0.015625 0  0.90625 0.015625 0  0.921875 0.015625 0  0.9375 0.015625 0  0.953125 0.015625 0  0.96875 0.015625 0  0.984375 0.015625 0  1 0.015625 0  0 0.03125 0  0.015625 0.03125 0  0.03125 0.03125 0  0.046875 0.03125 0  0.0625 0.03125 0  0.078125 0.03125 0  0.09375 0.03125 0  0.109375 0.03125 0  0.125 0.03125 0  0.140625 0.03125 0  0.15625 0.03125 0  0.171875 0.03125 0  0.1875 0.03125 0  0.203125 0.03125 0  0.21875 0.03125 0  0.234375 0.03125 0  0.25 0.03125 0  0.265625 0.03125 0  0.28125 0.03125 0  0.296875 0.03125 0  0.3125 0.03125 0  0.328125 0.03125 0  0.34375 0.03125 0  0.359375 0.03125 0  0.375 0.03125 0  0.390625 0.03125 0  0.40625 0.03125 0  0.421875 0.03125 0  0.4375 0.03125 0  0.453125 0.03125 0  0.46875 0.03125 0  0.484375 0.03125 0  0.5 0.03125 0  0.515625 0.03125 0  0.53125 0.03125 0  0.546875 0.03125 0  0.5625 0.03125 0  0.578125 0.03125 0  0.59375 0.03125 0  0.609375 0.03125 0  0.625 0.03125 0  0.640625 0.03125 0  0.65625 0.03125 0  0.671875 0.03125 0  0.6875 0.03125 0  0.703125 0.03125 0  0.71875 0.03125 0  0.734375 0.03125 0  0.75 0.03125 0  0.765625 0.03125 0  0.78125 0.03125 0  0.796875 0.03125 0  0.8125 0.03125 0  0.828125 0.03125 0  0.84375 0.03125 0  0.859375 0.03125 0  0.875 0.03125 0  0.890625 0.03125 0  0.90625 0.03125 0  0.921875 0.03125 0  0.9375 0.03125 0  0.953125 0.03125 0  0.96875 0.03125 0  0.984375 0.03125 0  1 0.03125 0  0 0.046875 0  0.015625 0.046875 0  0.03125 0.046875 0  0.046875 0.046875 0  0.0625 0.046875 0  0.078125 0.046875 0  0.09375 0.046875 0  0.109375 0.046875 0  0.125 0.046875 0  0.140625 0.046875 0  0.15625 0.046875 0  0.171875 0.046875 0  0.1875 0.046875 0  0.203125 0.046875 0  0.21875 0.046875 0  0.234375 0.046875 0  0.25 0.046875 0  0.265625 0.046875 0  0.28125 0.046875 0  0.296875 0.046875 0  0.3125 0.046875 0  0.328125 0.046875 0  0.34375 0.046875 0  0.359375 0.046875 0  0.375 0.046875 0  0.390625 0.046875 0  0.40625 0.046875 0  0.421875 0.046875 0  0.4375 0.046875 0  0.453125 0.046875 0  0.46875 0.046875 0  0.484375 0.046875 0  0.5 0.046875 0  0.515625 0.046875 0  0.53125 0.046875 0  0.546875 0.046875 0  0.5625 0.046875 0  0.578125 0.046875 0  0.59375 0.046875 0  0.609375 0.046875 0  0.625 0.046875 0  0.640625 0.046875 0  0.65625 0.046875 0  0.671875 0.046875 0  0.6875 0.046875 0  0.703125 0.046875 0  0.71875 0.046875 0  0.734375 0.046875 0  0.75 0.046875 0  0.765625 0.046875 0  0.78125 0.046875 0  0.796875 0.046875 0  0.8125 0.046875 0  0.828125 0.046875 0  0.84375 0.046875 0  0.859375 0.046875 0  0.875 0.046875 0  0.890625 0.046875 0  0.90625 0.046875 0  0.921875 0.046875 0  0.9375 0.046875 0  0.953125 0.046875 0  0.96875 0.046875 0  0.984375 0.046875 0  1 0.046875 0  0 0.0625 0  0.015625 0.0625 0  0.03125 0.0625 0  0.046875 0.0625 0  0.0625 0.0625 0  0.078125 0.0625 0  0.09375 0.0625 0  0.109375 0.0625 0  0.125 0.0625 0  0.140625 0.0625 0  0.15625 0.0625 0  0.171875 0.0625 0  0.1875 0.0625 0  0.203125 0.0625 0  0.21875 0.0625 0  0.234375 0.0625 0  0.25 0.0625 0  0.265625 0.0625 0  0.28125 0.0625 0  0.296875 0.0625 0  0.3125 0.0625 0  0.328125 0.0625 0  0.34375 0.0625 0  0.359375 0.0625 0  0.375 0.0625 0  0.390625 0.0625 0  0.40625 0.0625 0  0.421875 0.0625 0  0.4375 0.0625 0  0.453125 0.0625 0  0.46875 0.0625 0  0.484375 0.0625 0  0.5 0.0625 0  0.515625 0.0625 0  0.53125 0.0625 0  0.546875 0.0625 0  0.5625 0.0625 0  0.578125 0.0625 0  0.59375 0.0625 0  0.609375 0.0625 0  0.625 0.0625 0  0.640625 0.0625 0  0.65625 0.0625 0  0.671875 0.0625 0  0.6875 0.0625 0  0.703125 0.0625 0  0.71875 0.0625 0  0.734375 0.0625 0  0.75 0.0625 0  0.765625 0.0625 0  0.78125 0.0625 0  0.796875 0.0625 0  0.8125 0.0625 0  0.828125 0.0625 0  0.84375 0.0625 0  0.859375 0.0625 0  0.875 0.0625 0  0.890625 0.0625 0  0.90625 0.0625 0  0.921875 0.0625 0  0.9375 0.0625 0  0.953125 0.0625 0  0.96875 0.0625 0  0.984375 0.0625 0  1 0.0625 0  0 0.078125 0  0.015625 0.078125 0  0.03125 0.078125 0  0.046875 0.078125 0  0.0625 0.078125 0  0.078125 0.078125 0  0.09375 0.078125 0  0.109375 0.078125 0  0.125 0.078125 0  0.140625 0.078125 0  0.15625 0.078125 0  0.171875 0.078125 0  0.1875 0.078125 0  0.203125 0.078125 0  0.21875 0.078125 0  0.234375 0.078125 0  0.25 0.078125 0  0.265625 0.078125 0  0.28125 0.078125 0  0.296875 0.078125 0  0.3125 0.078125 0  0.328125 0.078125 0  0.34375 0.078125 0  0.359375 0.078125 0  0.375 0.078125 0  0.390625 0.078125 0  0.40625 0.078125 0  0.421875 0.078125 0  0.4375 0.078125 0  0.453125 0.078125 0  0.46875 0.078125 0  0.484375 0.078125 0  0.5 0.078125 0  0.515625 0.078125 0  0.53125 0.078125 0  0.546875 0.078125 0  0.5625 0.078125 0  0.578125 0.078125 0  0.59375 0.078125 0  0.609375 0.078125 0  0.625 0.078125 0  0.640625 0.078125 0  0.65625 0.078125 0  0.671875 0.078125 0  0.6875 0.078125 0  0.703125 0.078125 0  0.71875 0.078125 0  0.734375 0.078125 0  0.75 0.078125 0  0.765625 0.078125 0  0.78125 0.078125 0  0.796875 0.078125 0  0.8125 0.078125 0  0.828125 0.078125 0  0.84375 0.078125 0  0.859375 0.078125 0  0.875 0.078125 0  0.890625 0.078125 0  0.90625 0.078125 0  0.921875 0.078125 0  0.9375 0.078125 0  0.953125 0.078125 0  0.96875 0.078125 0  0.984375 0.078125 0  1 0.078125 0  0 0.09375 0  0.015625 0.09375 0  0.03125 0.09375 0  0.046875 0.09375 0  0.0625 0.09375 0  0.078125 0.09375 0  0.09375 0.09375 0  0.109375 0.09375 0  0.125 0.09375 0  0.140625 0.09375 0  0.15625 0.09375 0  0.171875 0.09375 0  0.1875 0.09375 0  0.203125 0.09375 0  0.21875 0.09375 0  0.234375 0.09375 0  0.25 0.09375 0  0.265625 0.09375 0  0.28125 0.09375 0  0.296875 0.09375 0  0.3125 0.09375 0  0.328125 0.09375 0  0.34375 0.09375 0  0.359375 0.09375 0  0.375 0.09375 0  0.390625 0.09375 0  0.40625 0.09375 0  0.421875 0.09375 0  0.4375 0.09375 0  0.453125 0.09375 0  0.46875 0.09375 0  0.484375 0.09375 0  0.5 0.09375 0  0.515625 0.09375 0  0.53125 0.09375 0  0.546875 0.09375 0  0.5625 0.09375 0  0.578125 0.09375 0  0.59375 0.09375 0  0.609375 0.09375 0  0.625 0.09375 0  0.640625 0.09375 0  0.65625 0.09375 0  0.671875 0.09375 0  0.6875 0.09375 0  0.703125 0.09375 0  0.71875 0.09375 0  0.734375 0.09375 0  0.75 0.09375 0  0.765625 0.09375 0  0.78125 0.09375 0  0.796875 0.09375 0  0.8125 0.09375 0  0.828125 0.09375 0  0.84375 0.09375 0  0.859375 0.09375 0  0.875 0.09375 0  0.890625 0.09375 0  0.90625 0.09375 0  0.921875 0.09375 0  0.9375 0.09375 0  0.953125 0.09375 0  0.96875 0.09375 0  0.984375 0.09375 0  1 0.09375 0  0 0.109375 0  0.015625 0.109375 0  0.03125 0.109375 0  0.046875 0.109375 0  0.0625 0.109375 0  0.078125 0.109375 0  0.09375 0.109375 0  0.109375 0.109375 0  0.125 0.109375 0  0.140625 0.109375 0  0.15625 0.109375 0  0.171875 0.109375 0  0.1875 0.109375 0  0.203125 0.109375 0  0.21875 0.109375 0  0.234375 0.109375 0  0.25 0.109375 0  0.265625 0.109375 0  0.28125 0.109375 0  0.296875 0.109375 0  0.3125 0.109375 0  0.328125 0.109375 0  0.34375 0.109375 0  0.359375 0.109375 0  0.375 0.109375 0  0.390625 0.109375 0  0.40625 0.109375 0  0.421875 0.109375 0  0.4375 0.109375 0  0.453125 0.109375 0  0.46875 0.109375 0  0.484375 0.109375 0  0.5 0.109375 0  0.515625 0.109375 0  0.53125 0.109375 0  0.546875 0.109375 0  0.5625 0.109375 0  0.578125 0.109375 0  0.59375 0.109375 0  0.609375 0.109375 0  0.625 0.109375 0  0.640625 0.109375 0  0.65625 0.109375 0  0.671875 0.109375 0  0.6875 0.109375 0  0.703125 0.109375 0  0.71875 0.109375 0  0.734375 0.109375 0  0.75 0.109375 0  0.765625 0.109375 0  0.78125 0.109375 0  0.796875 0.109375 0  0.8125 0.109375 0  0.828125 0.109375 0  0.84375 0.109375 0  0.859375 0.109375 0  0.875 0.109375 0  0.890625 0.109375 0  0.90625 0.109375 0  0.921875 0.109375 0  0.9375 0.109375 0  0.953125 0.109375 0  0.96875 0.109375 0  0.984375 0.109375 0  1 0.109375 0  0 0.125 0  0.015625 0.125 0  0.03125 0.125 0  0.046875 0.125 0  0.0625 0.125 0  0.078125 0.125 0  0.09375 0.125 0  0.109375 0.125 0  0.125 0.12
[...]
<PointData  Scalars="gamma"> 
<DataArray  type="Float64"  Name="gamma"  format="ascii">4.2254588630043829e+04  4.2363816345481442e+04  4.2437028617062482e+04  4.2467694353416999e+04  4.2449723424841955e+04  4.2377723226155504e+04  4.2247244882222600e+04  4.2055003678126559e+04  4.1799058742739609e+04  4.1478938830408515e+04  4.1095704177278269e+04  4.0651938635301267e+04  4.0151671235465299e+04  3.9600231520095491e+04  3.9004047883472347e+04  3.8370402267879261e+04  3.7707157472268329e+04  3.7022474787659739e+04  3.6324539602054218e+04  3.5621311122540166e+04  3.4920309698442739e+04  3.4228451752012465e+04  3.3551938427262117e+04  3.2896200129615179e+04  3.2265895461678396e+04  3.1664959886774603e+04  3.1096696900872696e+04  3.0563902613384336e+04  3.0069013419176867e+04  2.9614265848249124e+04  2.9201857654991312e+04  2.8834099703142558e+04  2.8513549158337817e+04  2.8243115844696280e+04  2.8026135253477969e+04  2.7866403472194146e+04  2.7768171062101290e+04  2.7736094470977230e+04  2.7775144772563865e+04  2.7890474290363061e+04  2.8087242020278107e+04  2.8370398882643269e+04  2.8744434019843164e+04  2.9213084030327002e+04  2.9779008651956530e+04  3.0443439372172019e+04  3.1205811955981568e+04  3.2063399837236990e+04  3.3010972191821864e+04  3.4040507328168904e+04  3.5140997419055086e+04  3.6298382963318050e+04  3.7495653175734893e+04  3.8713140656356598e+04  3.9929024884251034e+04  4.1120040084016204e+04  4.2262360748337996e+04  4.3332615464875365e+04  4.4308960132118031e+04  4.5172128518469683e+04  4.5906374026069265e+04  4.6500222738451805e+04  4.6946973974162385e+04  4.7244908604581295e+04  4.7397193995658585e+04  4.2535669145082291e+04  4.2653403046190775e+04  4.2731025470465967e+04  4.2761376236282384e+04  4.2737817256935246e+04  4.2654521963874831e+04  4.2506751982585731e+04  4.2291103302229269e+04  4.2005704754281258e+04  4.1650353799429613e+04  4.1226578345206137e+04  4.0737618307205863e+04  4.0188326431817310e+04  3.9584993937786225e+04  3.8935112176585077e+04  3.8247086164608969e+04  3.7529919033828905e+04  3.6792887899871013e+04  3.6045231296922713e+04  3.5295866333967373e+04  3.4553150421342711e+04  3.3824698248605760e+04  3.3117260149231603e+04  3.2436663514198135e+04  3.1787814873400173e+04  3.1174756888479682e+04  3.0600771906784648e+04  3.0068521924054330e+04  2.9580213733935809e+04  2.9137777613995000e+04  2.8743048016302157e+04  2.8397935315166360e+04  2.8104578648054354e+04  2.7865471202406618e+04  2.7683550868851406e+04  2.7562250887786176e+04  2.7505506817016878e+04  2.7517717682479109e+04  2.7603660398441974e+04  2.7768357376415155e+04  2.8016897709316829e+04  2.8354212585990150e+04  2.8784805974849580e+04  2.9312442545758979e+04  2.9939796754122712e+04  3.0668070405630129e+04  3.1496591070447299e+04  3.2422410299319523e+04  3.3439928137182054e+04  3.4540577861925667e+04  3.5712610690001318e+04  3.6941022634934932e+04  3.8207663103660736e+04  3.9491555975305622e+04  4.0769448525117165e+04  4.2016582520890610e+04  4.3207657292058961e+04  4.4317929783183157e+04  4.5324375363033258e+04  4.6206819159982275e+04  4.6948943757718953e+04  4.7539086538240263e+04  4.7970758282246366e+04  4.8242841494114982e+04  4.8359458563430802e+04  4.2831307470594693e+04  4.2958628108638120e+04  4.3041679221416824e+04  4.3072653872755072e+04  4.3044353183582287e+04  4.2950510500831078e+04  4.2786100197541906e+04  4.2547610804694414e+04  4.2233262895236126e+04  4.1843154738151556e+04  4.1379323124128845e+04  4.0845712604236316e+04  4.0248053135906564e+04  3.9593653104863450e+04  3.8891121141126343e+04  3.8150035378219305e+04  3.7380582277697446e+04  3.6593188547374266e+04  3.5798168980707109e+04  3.5005410456139660e+04  3.4224108287380775e+04  3.3462566164560732e+04  3.2728065660267392e+04  3.2026806225178087e+04  3.1363912173332341e+04  3.0743499606898138e+04  3.0168793646234364e+04  2.9642284675208903e+04  2.9165911462664051e+04  2.8741258823698889e+04  2.8369757792023382e+04  2.8052876972081202e+04  2.7792294748043758e+04  2.7590043290096939e+04  2.7448616760790763e+04  2.7371037708405504e+04  2.7360877231704075e+04  2.7422225979618524e+04  2.7559614284731611e+04  2.7777880645120847e+04  2.8081988387827449e+04  2.8476790828037683e+04  2.8966745889261023e+04  2.9555582402992415e+04  3.0245922645756469e+04  3.1038869519661857e+04  3.1933572355266188e+04  3.2926792468973494e+04  3.4012497714902718e+04  3.5181523173441739e+04  3.6421341188150800e+04  3.7715986314236412e+04  3.9046177583445140e+04  4.0389670566270172e+04  4.1721854746121702e+04  4.3016588733700082e+04  4.4247239243481898e+04  4.5387863071804859e+04  4.6414448699972163e+04  4.7306119574182732e+04  4.8046197583904606e+04  4.8623034112018817e+04  4.9030536585492831e+04  4.9268348068629806e+04  4.9341671960917105e+04  4.3141147360987707e+04  4.3279424699509997e+04  4.3369282123291196e+04  4.3402251502075196e+04  4.3370561793507259e+04  4.3267499576894552e+04  4.3087751431946504e+04  4.2827705140144477e+04  4.2485687566534129e+04  4.2062120130350886e+04  4.1559577880068282e+04  4.0982744957039511e+04  4.0338267017759856e+04  3.9634509172609323e+04  3.8881235314641526e+04  3.8089230550741144e+04  3.7269892194011081e+04  3.6434816094580456e+04  3.5595403961345146e+04  3.4762514052548970e+04  3.3946172725024298e+04  3.3155358508968347e+04  3.2397864321917445e+04  3.1680237774781595e+04  3.1007794715571741e+04  3.0384697463120490e+04  2.9814086666319559e+04  2.9298254287663520e+04  2.8838844657527716e+04  2.8437070647718694e+04  2.8093932559901121e+04  2.7810428161040993e+04  2.7587743331059733e+04  2.7427413973172457e+04  2.7331451151382713e+04  2.7302422829663788e+04  2.7343487031748173e+04  2.7458372627782257e+04  2.7651305185544395e+04  2.7926876334603185e+04  2.8289855900877548e+04  2.8744946822838028e+04  2.9296483851359302e+04  2.9948078680859096e+04  3.0702216934451782e+04  3.1559816744927837e+04  3.2519764738416226e+04  3.3578452866171625e+04  3.4729348063412494e+04  3.5962634904220409e+04  3.7264977542063927e+04  3.8619449289612217e+04  4.0005674328382214e+04  4.1400214967218657e+04  4.2777219365268102e+04  4.4109319866488098e+04  4.5368743686403912e+04  4.6528569470986266e+04  4.7564039636615606e+04  4.8453823603546123e+04  4.9181124167278380e+04  4.9734529626342875e+04  5.0108537045462428e+04  5.0303704231318487e+04  5.0326425108286057e+04  4.3464732893504595e+04  4.3615649772455850e+04  4.3714079906922663e+04  4.3750882511322277e+04  4.3717703813605178e+04  4.3607375263194837e+04  4.3414290728160326e+04  4.3134736778633946e+04  4.2767151201274952e+04  4.2312288424174621e+04  4.1773276414619366e+04  4.1155557377773359e+04  4.0466713478262303e+04  3.9716187878365541e+04  3.8914919622397210e+04  3.8074917370978714e+04  3.7208801004204703e+04  3.6329341305119167e+04  3.5449026320233985e+04  3.4579678948631859e+04  3.3732144492970845e+04  3.2916060129786747e+04  3.2139711356081971e+04  3.1409974166623630e+04  3.0732336529430744e+04  3.0110988924440040e+04  2.9548971319371212e+04  2.9048362812475920e+04  2.8610499992959802e+04  2.8236210540497490e+04  2.7926049424101198e+04  2.7680526065163849e+04  2.7500311889948091e+04  2.7386418781827586e+04  2.7340340067313467e+04  2.7364146852835562e+04  2.7460533767412529e+04  2.7632809419782854e+04  2.7884828085020290e+04  2.8220860247360804e+04  2.8645400659709510e+04  2.9162913664598847e+04  2.9777516921808467e+04  3.0492606793055460e+04  3.1310431890971675e+04  3.2231626096366279e+04  3.3254718858169908e+04  3.4375648605633927e+04  3.5587313894179562e+04  3.6879205173332208e+04  3.8237166011228823e+04  3.9643334185810018e+04  4.1076308352676657e+04  4.2511573757217207e+04  4.3922200530359900e+04  4.5279801808126504e+04  4.6555709077057378e+04  4.7722292824789263e+04  4.8754332407898808e+04  4.9630324396900993e+04  5.0333616689985021e+04  5.0853267648599060e+04  5.1184554355158340e+04  5.1329088595204550e+04  5.1294538469740153e+04  4.3801471329286534e+04  4.3967034094767601e+04  4.4076206872480914e+04  4.4119167426600077e+04  4.4086968816778179e+04  4.3971976245081190e+04  4.3768280090571287e+04  4.3472056221206694e+04  4.3081845885739400e+04  4.2598731524441631e+04  4.2026391533563350e+04  4.1371025833963824e+04  4.0641154157436424e+04  3.9847299179509522e+04  3.9001575831315575e+04  3.8117215259300989e+04  3.7208056185184381e+04  3.6288037456006794e+04  3.5370723415351225e+04  3.4468888840192936e+04  3.3594183363319105e+04  3.2756887503350474e+04  3.1965764626093791e+04  3.1228006192079807e+04  3.0549262083383634e+04  2.9933743924017905e+04  2.9384387098152467e+04  2.8903056387338143e+04  2.8490780415153604e+04  2.8148000993464189e+04  2.7874824647062673e+04  2.7671264796992735e+04  2.7537464177225494e+04  2.7473888026355762e+04  2.7481479491171933e+04  2.7561769583418765e+04  2.7716935008633431e+04  2.7949798259317526e+04  2.8263765518580993e+04  2.8662699131327652e+04  2.9150722684564185e+04  2.9731958202990678e+04  3.0410196838709475e+04  3.1188507057721868e+04  3.2068788100431404e+04  3.3051281761441249e+04  3.4134062425647127e+04  3.5312533561050011e+04  3.6578967731834760e+04  3.7922135313756335e+04  3.9327072635906574e+04  4.0775041171438905e+04  4.2243723762687805e+04  4.3707690482018472e+04  4.5139145557112155e+04  4.6508939287326983e+04  4.7787798048449738e+04  4.8947695551076671e+04  4.9963264262050805e+04  5.0813131754354414e+04  5.1481065878134665e+04  5.1956826186010141e+04  5.2236645765766596e+04  5.2323304054394874e+04  5.2225792210285668e+04  4.4150583735392960e+04  4.4333117080083102e+04  4.4455602501289657e+04  4.4507529863404736e+04  4.4479348139506656e+04  4.4362941493005288e+04  4.4152078948901020e+04  4.3842805646966932e+04  4.3433745032229468e+04  4.2926285876402122e+04  4.2324635550717510e+04  4.1635730869062521e+04  4.0869009096085014e+04  4.0036053120435390e+04  3.9150135006286844e+04  3.8225689962049117e+04  3.7277757324822254e+04  3.6321426026749417e+04  3.5371319270851542e+04  3.4441147365048811e+04  3.3543349775159229e+04  3.2688838584604662e+04  3.1886846812615040e+04  3.1144877388228251e+04  3.0468742645296727e+04  2.9862680276271425e+04  2.9329529700224633e+04  2.8870952438077751e+04  2.8487680865328741e+04  2.8179781113910172e+04  2.7946917470529570e+04  2.7788607053603704e+04  2.7704454690249087e+04  2.7694358752324450e+04  2.7758679345282151e+04  2.7898360822772025e+04  2.8115001263822011e+04  2.8410862393918138e+04  2.8788814498470667e+04  2.9252212175832181e+04  2.9804698326651658e+04  3.0449935658064929e+04  3.1191267375315994e+04  3.2031311921168650e+04  3.2971500937522003e+04  3.4011575341889315e+04  3.5149061606047137e+04  3.6378758695440716e+04  3.7692274868744462e+04  3.9077661284226917e+04  4.0519194284028883e+04  4.1997358291689183e+04  4.3489074630954812e+04  4.4968207135976772e+04  4.6406353250593260e+04  4.7773900997458666e+04  4.9041300864509780e+04  5.0180471631802677e+04  5.1166235280671477e+04  5.1977662820611156e+04  5.2599213226036190e+04  5.3021562704001022e+04  5.3242049801676170e+04  5.3264699729189349e+04  5.3099833409557221e+04  4.4511044290187645e+04  4.4713167848969781e+04  4.4851911592845572e+04  4.4916073109827666e+04  4.4895485434307142e+04  4.4781532575504767e+04  4.4567636410811778e+04  4.4249679790047332e+04  4.3826332179306009e+04  4.3299249193698975e+04  4.2673125720160773e+04  4.1955593322443397e+04  4.1156965131915560e+04  4.0289844055620502e+04  3.9368621389981119e+04  3.8408901474232101e+04  3.7426892872780321e+04  3.6438807277919645e+04  3.5460303994300761e+04  3.4506011170153608e+04  3.3589145955526263e+04  3.2721245785236431e+04  3.1912013282825068e+04  3.1169268926512836e+04  3.0498999316917649e+04  2.9905484928567945e+04  2.9391489506317801e+04  2.8958493370859094e+04  2.8606954235961573e+04  2.8336581088005492e+04  2.8146608692105354e+04  2.8036061988031208e+04  2.8004000839663091e+04  2.8049736306352970e+04  2.8173009955686724e+04  2.8374127951298517e+04  2.8654041949993665e+04  2.9014369407870676e+04  2.9457346834866199e+04  2.9985710900718306e+04  3.0602504109292517e+04  3.1310804076443997e+04  3.2113378392762195e+04  3.3012270831299182e+04  3.4008329519002313e+04  3.5100693824224763e+04  3.6286264123255030e+04  3.7559186946452966e+04  3.8910396438660624e+04  4.0327260243679048e+04  4.1793382051349094e+04  4.3288612166337261e+04  4.4789309843273622e+04  4.6268885786987128e+04  4.7698630340571290e+04  4.9048804176842954e+04  5.0289936973485354e+04  5.1394249940760725e+04  5.2337094989744743e+04  5.3098291128538120e+04  5.3663240317778946e+04  5.4023721361602315e+04  5.4178289883231402e+04  5.4132251211621755e+04  5.3897215668382931e+04  4.4881510306453791e+04  4.5106095261782852e+04  4.5264371474913809e+04  4.5344441778974062e+04  4.5335510252800384e+04  4.5228437019615631e+04  4.5016262741662409e+04  4.4694664505579844e+04  4.4262306347861224e+04  4.3721053130069908e+04  4.3076025618685671e+04  4.2335486691346370e+04  4.1510562339002208e+04  4.0614815000224866e+04  3.9663699093550153e+04  3.8673937914400718e+04  3.7662866248361468e+04  3.6647783617436784e+04  3.5645359171568707e+04  3.4671121628467379e+04  3.3739057576892716e+04  3.2861330352818972e+04  3.2048121015283850e+04  3.1307583880043694e+04  3.0645902393687844e+04  3.0067427148059967e+04  2.9574876391677721e+04  2.9169579990257655e+04  2.8851749722748507e+04  2.8620761332909802e+04  2.8475436246943202e+04  2.8414312863612009e+04  2.8435898606457227e+04  2.8538894504877375e+04  2.8722384125173216e+04  2.8985978490767575e+04  2.9329908523601851e+04  2.9755056774597859e+04  3.0262920976200250e+04  3.0855503343181721e+04  3.1535121608009529e+04  3.2304140530562017e+04  3.3164626129189790e+04  3.4117929256534029e+04  3.5164210535304548e+04  3.6301925173751952e+04  3.7527293719754758e+04  3.8833792986723995e+04  4.0211709352976068e+04  4.1647803077794699e+04  4.3125135483594117e+04  4.4623108979439858e+04  4.6117761360714401e+04  4.7582339760941548e+04  4.8988156380013374e+04  5.0305699447736399e+04  5.1505942026132143e+04  5.2561762514314411e+04  5.3449368796492206e+04  5.4149607067385463e+04  5.4649039275768140e+04  5.4940690541720389e+04  5.5024398123988467e+04  5.4906732635250955e+04  5.4600504782340577e+04  4.5260246142075499e+04  4.5510350995358283e+04  4.5691691359708537e+04  4.5791674687382882e+04  4.5798861956655484e+04  4.5703561179002892e+04  4.5498389674847269e+04  4.5178763701614444e+04  4.4743275578427354e+04  4.4193924284909343e+04  4.3536175390693948e+04  4.2778839270992459e+04  4.1933771524590178e+04  4.1015414616971786e+04  4.0040213196959121e+04  3.9025945632264360e+04  3.7991019876884413e+04  3.6953782265332862e+04  3.5931883399042978e+04  3.4941736805605928e+04  3.3998094883021527e+04  3.3113754420107885e+04  3.2299392316132464e+04  3.1563522328949854e+04  3.0912556617391532e+04  3.0350951824866006e+04  2.9881418281899751e+04  2.9505171998900831e+04  2.9222211666828291e+04  2.9031606028198963e+04  2.8931779979309369e+04  2.8920790089348440e+04  2.8996581614011244e+04  2.9157219544937703e+04  2.9401085990969073e+04  2.9727035587572806e+04  3.0134500077160414e+04  3.0623533059493759e+04  3.1194786448922103e+04  3.1849411550376761e+04  3.2588879936403133e+04  3.3414722473715454e+04  3.4328188902907132e+04  3.5329835336220975e+04  3.6419052938579764e+04  3.7593557884470407e+04  3.8848870273230263e+04  4.0177817590899955e+04  4.1570105690426404e+04  4.3012005861416568e+04  4.4486208778328204e+04  4.5971893257350028e+04  4.7445048399074622e+04  4.8879071150990610e+04  5.0245638031080241e+04  5.1515821538717668e+04  5.2661391831734625e+04  5.3656216762317068e+04  5.4477652865762058e+04  5.5107810381059906e+04  5.5534579447610733e+04  5.5752322805188531e+04  5.5762170828697468e+04  5.5571893633613763e+04  5.5195366907422082e+04  4.5645045255124118e+04  4.5923830985858360e+04  4.6131930339340986e+04  4.6256056704776754e+04  4.6284113001104437e+04  4.6205822957140299e+04  4.6013331153017018e+04  4.5701727380524506e+04  4.5269452362429372e+04  4.4718547985605386e+04  4.4054725728712663e+04  4.3287241024143135e+04  4.2428577421886810e+04  4.1493960754203661e+04  4.0500738040386648e+04  3.9467666813006654e+04  3.8414166567865934e+04  3.7359584521643403e+04  3.6322522988288692e+04  3.5320266395965467e+04  3.4368333769050834e+04  3.3480169192159483e+04  3.2666970125835422e+04  3.1937642912326730e+04  3.1298867333865946e+04  3.0755248002398348e+04  3.0309529438811991e+04  2.9962853275045403e+04  2.9715039167626379e+04  2.9564874777737612e+04  2.9510403701877061e+04  2.9549202920287808e+04  2.9678642860271226e+04  2.9896123542995138e+04  3.0199279743749343e+04  3.0586147065434045e+04  3.1055279792718818e+04  3.1605810823226013e+04  3.2237444224964525e+04  3.2950372268580795e+04  3.3745111212051066e+04  3.4622253652909254e+04  3.5582139833952417e+04  3.6624455806143334e+04  3.7747772728797172e+04  3.8949048693322366e+04  4.0223122038294408e+04  4.1562232689831748e+04  4.2955614790049120e+04  4.4389208584605425e+04  4.5845540766326005e+04  4.7303818695248687e+04  4.8740273902273220e+04  5.0128773497816663e+04  5.1441695088668472e+04  5.2651033397148953e+04  5.3729678084781153e+04  5.4652776332231952e+04  5.5399074816872155e+04  5.5952127610162926e+04  5.6301261570246752e+04  5.6442209420670908e+04  5.6377351035069456e+04  5.6115541614497626e+04  5.5671546196097050e+04  4.6033155624070350e+04  4.6343781651799087e+04  4.6582381740868856e+04  4.6734978687795425e+04  4.6788802144354755e+04  4.6732956379912328e+04  4.6559057879071566e+04  4.6261795433474632e+04  4.5839366689746843e+04  4.5293751397687687e+04  4.4630792662009277e+04  4.3860072422335114e+04  4.2994584612595208e+04  4.2050226978022321e+04  4.1045148197797011e+04  3.9998998805004856e+04  3.8932140959458906e+04  3.7864872720198575e+04  3.6816717262443359e+04  3.5805817492991097e+04  3.4848463371415965e+04  3.3958764898641610e+04  3.3148470123127125e+04  3.2426916232058506e+04  3.1801093870824167e+04  3.1275800639023608e+04  3.0853858991412948e+04  3.0536375790897982e+04  3.0323024501730877e+04  3.0212335394857200e+04  3.0201983209564445e+04  3.0289064782162688e+04  3.0470360850398145e+04  3.0742576547591136e+04  3.1102554282105513e+04  3.1547451232201438e+04  3.2074872149571347e+04  3.2682947121560050e+04  3.3370343852133388e+04  3.4136205181164136e+04  3.4980005087114201e+04  3.5901320271935823e+04  3.6899519467922502e+04  3.7973378642769690e+04  3.9120637097897350e+04  4.0337516806773376e+04  4.1618234879075739e+04  4.2954546232595581e+04  4.4335359611055552e+04  4.5746473912844645e+04  4.7170482083411756e+04  4.8586885240326999e+04  4.9972449201302712e+04  5.1301818789760218e+04  5.2548382821088911e+04  5.3685356349731184e+04  5.4687019568055635e+04  5.5530028504663780e+04  5.6194695405551851e+04  5.6666129879058382e+04  5.6935137706304544e+04  5.6998792925182715e+04  5.6860628526398876e+04  5.6530428081699611e+04  5.6023639798453674e+04  4.6421214519571397e+04  4.6766718160857228e+04  4.7039472505726175e+04  4.7224815662695786e+04  4.7309289311802189e+04  4.7281341329092815e+04  4.7132000536303771e+04  4.6855473501955785e+04  4.6449614327714989e+04  4.5916224668608906e+04  4.5261152691119394e+04  4.4494175335773492e+04  4.3628666487579590e+04  4.2681072338761274e+04  4.1670232038998816e+04  4.0616594537254736e+04  3.9541389733232820e+04  3.8465812892116592e+04  3.7410275888413460e+04  3.6393768284489939e+04  3.5433357257552889e+04  3.4543840070050894e+04  3.3737548225697086e+04  3.3024290402170758e+04  3.2411412832599013e+04  3.1903951437338863e+04  3.1504849421159743e+04  3.1215216453969053e+04  3.1034609838493197e+04  3.0961323049555896e+04  3.0992671646778977e+04  3.1125270031336891e+04  3.1355294411421408e+04  3.1678727608057266e+04  3.2091580253375032e+04  3.2590081034541516e+04  3.3170826577054810e+04  3.3830880007122207e+04  3.4567806745503665e+04  3.5379637040846239e+04  3.6264747306626079e+04  3.7221656434839511e+04  3.8248738718958317e+04  3.9343861533696152e+04  4.0503963151458993e+04  4.1724593654571690e+04  4.2999449392880175e+04  4.4319938271369807e+04  4.5674818566946815e+04  4.704995697953052