<?xml version="1.0"?>
<VTKFile type="UnstructuredGrid"  version="0.1"  >
<UnstructuredGrid>
<Piece  NumberOfPoints="4225" NumberOfCells="8192">
<Points>
<DataArray  type="Float64"  NumberOfComponents="3"  format="ascii">0 0 0  0.015625 0 0  0.03125 0 0  0.046875 0 0  0.0625 0 0  0.078125 0 0  0.09375 0 0  0.109375 0 0  0.125 0 0  0.140625 0 0  0.15625 0 0  0.171875 0 0  0.1875 0 0  0.203125 0 0  0.21875 0 0  0.234375 0 0  0.25 0 0  0.265625 0 0  0.28125 0 0  0.296875 0 0  0.3125 0 0  0.328125 0 0  0.34375 0 0  0.359375 0 0  0.375 0 0  0.390625 0 0  0.40625 0 0  0.421875 0 0  0.4375 0 0  0.453125 0 0  0.46875 0 0  0.484375 0 0  0.5 0 0  0.515625 0 0  0.53125 0 0  0.546875 0 0  0.5625 0 0  0.578125 0 0  0.59375 0 0  0.609375 0 0  0.625 0 0  0.640625 0 0  0.65625 0 0  0.671875 0 0  0.6875 0 0  0.703125 0 0  0.71875 0 0  0.734375 0 0  0.75 0 0  0.765625 0 0  0.78125 0 0  0.796875 0 0  0.8125 0 0  0.828125 0 0  0.84375 0 0  0.859375 0 0  0.875 0 0  0.890625 0 0  0.90625 0 0  0.921875 0 0  0.9375 0 0  0.953125 0 0  0.96875 0 0  0.984375 0 0  1 0 0  0 0.015625 0  0.015625 0.015625 0  0.03125 0.015625 0  0.046875 0.015625 0  0.0625 0.015625 0  0.078125 0.015625 0  0.09375 0.015625 0  0.109375 0.015625 0  0.125 0.015625 0  0.140625 0.015625 0  0.15625 0.015625 0  0.171875 0.015625 0  0.1875 0.015625 0  0.203125 0.015625 0  0.21875 0.015625 0  0.234375 0.015625 0  0.25 0.015625 0  0.265625 0.015625 0  0.28125 0.015625 0  0.296875 0.015625 0  0.3125 0.015625 0  0.328125 0.015625 0  0.34375 0.015625 0  0.359375 0.015625 0  0.375 0.015625 0  0.390625 0.015625 0  0.40625 0.015625 0  0.421875 0.015625 0  0.4375 0.015625 0  0.453125 0.015625 0  0.46875 0.015625 0  0.484375 0.015625 0  0.5 0.015625 0  0.515625 0.015625 0  0.53125 0.015625 0  0.546875 0.015625 0  0.5625 0.015625 0  0.578125 0.015625 0  0.59375 0.015625 0  0.609375 0.015625 0  0.625 0.015625 0  0.640625 0.015625 0  0.65625 0.015625 0  0.671875 0.015625 0  0.6875 0.015625 0  0.703125 0.015625 0  0.71875 0.015625 0  0.734375 0.015625 0  0.75 0.015625 0  0.765625 0.015625 0  0.78125 0.015625 0  0.796875 0.015625 0  0.8125 0.015625 0  0.828125 0.015625 0  0.84375 0.015625 0  0.859375 0.015625 0  0.875 0.015625 0  0.890625 0.015625 0  0.90625 0.015625 0  0.921875 0.015625 0  0.9375 0.015625 0  0.953125 0.015625 0  0.96875 0.015625 0  0.984375 0.015625 0  1 0.015625 0  0 0.03125 0  0.015625 0.03125 0  0.03125 0.03125 0  0.046875 0.03125 0  0.0625 0.03125 0  0.078125 0.03125 0  0.09375 0.03125 0  0.109375 0.03125 0  0.125 0.03125 0  0.140625 0.03125 0  0.15625 0.03125 0  0.171875 0.03125 0  0.1875 0.03125 0  0.203125 0.03125 0  0.21875 0.03125 0  0.234375 0.03125 0  0.25 0.03125 0  0.265625 0.03125 0  0.28125 0.03125 0  0.296875 0.03125 0  0.3125 0.03125 0  0.328125 0.03125 0  0.34375 0.03125 0  0.359375 0.03125 0  0.375 0.03125 0  0.390625 0.03125 0  0.40625 0.03125 0  0.421875 0.03125 0  0.4375 0.03125 0  0.453125 0.03125 0  0.46875 0.03125 0  0.484375 0.03125 0  0.5 0.03125 0  0.515625 0.03125 0  0.53125 0.03125 0  0.546875 0.03125 0  0.5625 0.03125 0  0.578125 0.03125 0  0.59375 0.03125 0  0.609375 0.03125 0  0.625 0.03125 0  0.640625 0.03125 0  0.65625 0.03125 0  0.671875 0.03125 0  0.6875 0.03125 0  0.703125 0.03125 0  0.71875 0.03125 0  0.734375 0.03125 0  0.75 0.03125 0  0.765625 0.03125 0  0.78125 0.03125 0  0.796875 0.03125 0  0.8125 0.03125 0  0.828125 0.03125 0  0.84375 0.03125 0  0.859375 0.03125 0  0.875 0.03125 0  0.890625 0.03125 0  0.90625 0.03125 0  0.921875 0.03125 0  0.9375 0.03125 0  0.953125 0.03125 0  0.96875 0.03125 0  0.984375 0.03125 0  1 0.03125 0  0 0.046875 0  0.015625 0.046875 0  0.03125 0.046875 0  0.046875 0.046875 0  0.0625 0.046875 0  0.078125 0.046875 0  0.09375 0.046875 0  0.109375 0.046875 0  0.125 0.046875 0  0.140625 0.046875 0  0.15625 0.046875 0  0.171875 0.046875 0  0.1875 0.046875 0  0.203125 0.046875 0  0.21875 0.046875 0  0.234375 0.046875 0  0.25 0.046875 0  0.265625 0.046875 0  0.28125 0.046875 0  0.296875 0.046875 0  0.3125 0.046875 0  0.328125 0.046875 0  0.34375 0.046875 0  0.359375 0.046875 0  0.375 0.046875 0  0.390625 0.046875 0  0.40625 0.046875 0  0.421875 0.046875 0  0.4375 0.046875 0  0.453125 0.046875 0  0.46875 0.046875 0  0.484375 0.046875 0  0.5 0.046875 0  0.515625 0.046875 0  0.53125 0.046875 0  0.546875 0.046875 0  0.5625 0.046875 0  0.578125 0.046875 0  0.59375 0.046875 0  0.609375 0.046875 0  0.625 0.046875 0  0.640625 0.046875 0  0.65625 0.046875 0  0.671875 0.046875 0  0.6875 0.046875 0  0.703125 0.046875 0  0.71875 0.046875 0  0.734375 0.046875 0  0.75 0.046875 0  0.765625 0.046875 0  0.78125 0.046875 0  0.796875 0.046875 0  0.8125 0.046875 0  0.828125 0.046875 0  0.84375 0.046875 0  0.859375 0.046875 0  0.875 0.046875 0  0.890625 0.046875 0  0.90625 0.046875 0  0.921875 0.046875 0  0.9375 0.046875 0  0.953125 0.046875 0  0.96875 0.046875 0  0.984375 0.046875 0  1 0.046875 0  0 0.0625 0  0.015625 0.0625 0  0.03125 0.0625 0  0.046875 0.0625 0  0.0625 0.0625 0  0.078125 0.0625 0  0.09375 0.0625 0  0.109375 0.0625 0  0.125 0.0625 0  0.140625 0.0625 0  0.15625 0.0625 0  0.171875 0.0625 0  0.1875 0.0625 0  0.203125 0.0625 0  0.21875 0.0625 0  0.234375 0.0625 0  0.25 0.0625 0  0.265625 0.0625 0  0.28125 0.0625 0  0.296875 0.0625 0  0.3125 0.0625 0  0.328125 0.0625 0  0.34375 0.0625 0  0.359375 0.0625 0  0.375 0.0625 0  0.390625 0.0625 0  0.40625 0.0625 0  0.421875 0.0625 0  0.4375 0.0625 0  0.453125 0.0625 0  0.46875 0.0625 0  0.484375 0.0625 0  0.5 0.0625 0  0.515625 0.0625 0  0.53125 0.0625 0  0.546875 0.0625 0  0.5625 0.0625 0  0.578125 0.0625 0  0.59375 0.0625 0  0.609375 0.0625 0  0.625 0.0625 0  0.640625 0.0625 0  0.65625 0.0625 0  0.671875 0.0625 0  0.6875 0.0625 0  0.703125 0.0625 0  0.71875 0.0625 0  0.734375 0.0625 0  0.75 0.0625 0  0.765625 0.0625 0  0.78125 0.0625 0  0.796875 0.0625 0  0.8125 0.0625 0  0.828125 0.0625 0  0.84375 0.0625 0  0.859375 0.0625 0  0.875 0.0625 0  0.890625 0.0625 0  0.90625 0.0625 0  0.921875 0.0625 0  0.9375 0.0625 0  0.953125 0.0625 0  0.96875 0.0625 0  0.984375 0.0625 0  1 0.0625 0  0 0.078125 0  0.015625 0.078125 0  0.03125 0.078125 0  0.046875 0.078125 0  0.0625 0.078125 0  0.078125 0.078125 0  0.09375 0.078125 0  0.109375 0.078125 0  0.125 0.078125 0  0.140625 0.078125 0  0.15625 0.078125 0  0.171875 0.078125 0  0.1875 0.078125 0  0.203125 0.078125 0  0.21875 0.078125 0  0.234375 0.078125 0  0.25 0.078125 0  0.265625 0.078125 0  0.28125 0.078125 0  0.296875 0.078125 0  0.3125 0.078125 0  0.328125 0.078125 0  0.34375 0.078125 0  0.359375 0.078125 0  0.375 0.078125 0  0.390625 0.078125 0  0.40625 0.078125 0  0.421875 0.078125 0  0.4375 0.078125 0  0.453125 0.078125 0  0.46875 0.078125 0  0.484375 0.078125 0  0.5 0.078125 0  0.515625 0.078125 0  0.53125 0.078125 0  0.546875 0.078125 0  0.5625 0.078125 0  0.578125 0.078125 0  0.59375 0.078125 0  0.609375 0.078125 0  0.625 0.078125 0  0.640625 0.078125 0  0.65625 0.078125 0  0.671875 0.078125 0  0.6875 0.078125 0  0.703125 0.078125 0  0.71875 0.078125 0  0.734375 0.078125 0  0.75 0.078125 0  0.765625 0.078125 0  0.78125 0.078125 0  0.796875 0.078125 0  0.8125 0.078125 0  0.828125 0.078125 0  0.84375 0.078125 0  0.859375 0.078125 0  0.875 0.078125 0  0.890625 0.078125 0  0.90625 0.078125 0  0.921875 0.078125 0  0.9375 0.078125 0  0.953125 0.078125 0  0.96875 0.078125 0  0.984375 0.078125 0  1 0.078125 0  0 0.09375 0  0.015625 0.09375 0  0.03125 0.09375 0  0.046875 0.09375 0  0.0625 0.09375 0  0.078125 0.09375 0  0.09375 0.09375 0  0.109375 0.09375 0  0.125 0.09375 0  0.140625 0.09375 0  0.15625 0.09375 0  0.171875 0.09375 0  0.1875 0.09375 0  0.203125 0.09375 0  0.21875 0.09375 0  0.234375 0.09375 0  0.25 0.09375 0  0.265625 0.09375 0  0.28125 0.09375 0  0.296875 0.09375 0  0.3125 0.09375 0  0.328125 0.09375 0  0.34375 0.09375 0  0.359375 0.09375 0  0.375 0.09375 0  0.390625 0.09375 0  0.40625 0.09375 0  0.421875 0.09375 0  0.4375 0.09375 0  0.453125 0.09375 0  0.46875 0.09375 0  0.484375 0.09375 0  0.5 0.09375 0  0.515625 0.09375 0  0.53125 0.09375 0  0.546875 0.09375 0  0.5625 0.09375 0  0.578125 0.09375 0  0.59375 0.09375 0  0.609375 0.09375 0  0.625 0.09375 0  0.640625 0.09375 0  0.65625 0.09375 0  0.671875 0.09375 0  0.6875 0.09375 0  0.703125 0.09375 0  0.71875 0.09375 0  0.734375 0.09375 0  0.75 0.09375 0  0.765625 0.09375 0  0.78125 0.09375 0  0.796875 0.09375 0  0.8125 0.09375 0  0.828125 0.09375 0  0.84375 0.09375 0  0.859375 0.09375 0  0.875 0.09375 0  0.890625 0.09375 0  0.90625 0.09375 0  0.921875 0.09375 0  0.9375 0.09375 0  0.953125 0.09375 0  0.96875 0.09375 0  0.984375 0.09375 0  1 0.09375 0  0 0.109375 0  0.015625 0.109375 0  0.03125 0.109375 0  0.046875 0.109375 0  0.0625 0.109375 0  0.078125 0.109375 0  0.09375 0.109375 0  0.109375 0.109375 0  0.125 0.109375 0  0.140625 0.109375 0  0.15625 0.109375 0  0.171875 0.109375 0  0.1875 0.109375 0  0.203125 0.109375 0  0.21875 0.109375 0  0.234375 0.109375 0  0.25 0.109375 0  0.265625 0.109375 0  0.28125 0.109375 0  0.296875 0.109375 0  0.3125 0.109375 0  0.328125 0.109375 0  0.34375 0.109375 0  0.359375 0.109375 0  0.375 0.109375 0  0.390625 0.109375 0  0.40625 0.109375 0  0.421875 0.109375 0  0.4375 0.109375 0  0.453125 0.109375 0  0.46875 0.109375 0  0.484375 0.109375 0  0.5 0.109375 0  0.515625 0.109375 0  0.53125 0.109375 0  0.546875 0.109375 0  0.5625 0.109375 0  0.578125 0.109375 0  0.59375 0.109375 0  0.609375 0.109375 0  0.625 0.109375 0  0.640625 0.109375 0  0.65625 0.109375 0  0.671875 0.109375 0  0.6875 0.109375 0  0.703125 0.109375 0  0.71875 0.109375 0  0.734375 0.109375 0  0.75 0.109375 0  0.765625 0.109375 0  0.78125 0.109375 0  0.796875 0.109375 0  0.8125 0.109375 0  0.828125 0.109375 0  0.84375 0.109375 0  0.859375 0.109375 0  0.875 0.109375 0  0.890625 0.109375 0  0.90625 0.109375 0  0.921875 0.109375 0  0.9375 0.109375 0  0.953125 0.109375 0  0.96875 0.109375 0  0.984375 0.109375 0  1 0.109375 0  0 0.125 0  0.015625 0.125 0  0.03125 0.125 0  0.046875 0.125 0  0.0625 0.125 0  0.078125 0.125 0  0.09375 0.125 0  0.109375 0.125 0  0.125 0.12
[...]
<PointData  Scalars="gamma"> 
<DataArray  type="Float64"  Name="gamma"  format="ascii">4.1474506484342834e+04  4.1593530285309302e+04  4.1714731314969649e+04  4.1837388920024292e+04  4.1960583168836209e+04  4.2083135263906996e+04  4.2203547400903350e+04  4.2319947676450429e+04  4.2430046438621830e+04  4.2531110858062690e+04  4.2619964369887362e+04  4.2693016915019405e+04  4.2746330545967125e+04  4.2775722953873410e+04  4.2776908878597736e+04  4.2745676310715979e+04  4.2678091090552633e+04  4.2570720235616784e+04  4.2420861421736365e+04  4.2226763866557383e+04  4.1987824756598740e+04  4.1704745584010394e+04  4.1379634450026191e+04  4.1016043511164535e+04  4.0618935064421588e+04  4.0194574884972440e+04  3.9750356808643162e+04  3.9294567597958114e+04  3.8836105282987242e+04  3.8384166986057273e+04  3.7947923475295684e+04  3.7536197330219264e+04  3.7157159855833794e+04  3.6818059146185376e+04  3.6524988476154598e+04  3.6282701004970426e+04  3.6094474038214961e+04  3.5962024093406639e+04  3.5885472827324666e+04  3.5863363391498504e+04  3.5892726702137603e+04  3.5969197060730214e+04  3.6087176147470353e+04  3.6240043314495713e+04  3.6420408167848029e+04  3.6620398691383962e+04  3.6831974898306231e+04  3.7047254651673735e+04  3.7258835445260644e+04  3.7460094163076785e+04  3.7645446618001566e+04  3.7810550278037605e+04  3.7952437018507524e+04  3.8069567696002377e+04  3.8161806283044527e+04  3.8230317532158835e+04  3.8277397918062226e+04  3.8306254286394724e+04  3.8320747752113675e+04  3.8325121719867457e+04  3.8323732474537414e+04  3.8320798859970273e+04  3.8320184520336137e+04  3.8325222476507639e+04  3.8338587889510804e+04  4.1569475298834215e+04  4.1691545820209089e+04  4.1815639987476978e+04  4.1941172134359455e+04  4.2067383102404514e+04  4.2193272646691468e+04  4.2317528958336748e+04  4.2438461313870277e+04  4.2553942829110158e+04  4.2661370836629714e+04  4.2757652407284033e+04  4.2839221905146958e+04  4.2902096141377719e+04  4.2941970660949781e+04  4.2954358001830369e+04  4.2934765528431963e+04  4.2878906863392534e+04  4.2782937311636590e+04  4.2643700345880621e+04  4.2458969599472308e+04  4.2227669277399771e+04  4.1950055767217666e+04  4.1627844695835163e+04  4.1264270741523156e+04  4.0864071969933924e+04  4.0433395911608553e+04  3.9979630468867814e+04  3.9511168380319657e+04  3.9037118743531304e+04  3.8566982478697188e+04  3.8110310287944252e+04  3.7676361558559081e+04  3.7273780964394515e+04  3.6910306644692369e+04  3.6592520325406571e+04  3.6325646168522391e+04  3.6113401990468519e+04  3.5957904122873544e+04  3.5859625727726336e+04  3.5817407733584841e+04  3.5828521450591928e+04  3.5888781949827484e+04  3.5992711026887890e+04  3.6133747647553391e+04  3.6304501986127296e+04  3.6497046520190830e+04  3.6703234379927060e+04  3.6915031715230289e+04  3.7124847825039338e+04  3.7325844804895547e+04  3.7512208031066672e+04  3.7679360227397970e+04  3.7824105186843117e+04  3.7944692171170820e+04  3.8040798050706959e+04  3.8113430656534758e+04  3.8164762834092209e+04  3.8197911621549501e+04  3.8216680326919624e+04  3.8225282794215425e+04  3.8228068845130052e+04  3.8229268000887205e+04  3.8232765528177348e+04  3.8241921082959409e+04  3.8259436204710655e+04  4.1659739684673128e+04  4.1783410500077036e+04  4.1908819843544145e+04  4.2035545117844908e+04  4.2163024735416810e+04  4.2290482341893490e+04  4.2416845430138230e+04  4.2540664736949126e+04  4.2660041969044643e+04  4.2772574116737233e+04  4.2875322760738592e+04  4.2964816258803301e+04  4.3037091443782541e+04  4.3087779445245025e+04  4.3112237493459194e+04  4.3105725182340000e+04  4.3063619850433795e+04  4.2981661772854684e+04  4.2856216112446011e+04  4.2684535480238199e+04  4.2465004934990153e+04  4.2197350683872311e+04  4.1882794879896566e+04  4.1524141808049295e+04  4.1125785246827982e+04  4.0693632490829979e+04  4.0234946836753705e+04  3.9758116567748490e+04  3.9272363906884661e+04  3.8787411440169701e+04  3.8313125727188286e+04  3.7859158086861746e+04  3.7434601017423542e+04  3.7047675784561281e+04  3.6705462959821656e+04  3.6413683741496323e+04  3.6176536313315293e+04  3.5996588706278802e+04  3.5874727818338572e+04  3.5810163367504341e+04  3.5800485345680805e+04  3.5841773597102190e+04  3.5928758009096782e+04  3.6055027068775024e+04  3.6213280949240427e+04  3.6395622801851328e+04  3.6593878751011616e+04  3.6799933644060453e+04  3.7006066486033109e+04  3.7205267320407074e+04  3.7391516657028580e+04  3.7560009754280909e+04  3.7707311208561921e+04  3.7831430151080414e+04  3.7931812378950795e+04  3.8009252240276372e+04  3.8065733268987671e+04  3.8104211708540570e+04  3.8128360638878527e+04  3.8142294145870364e+04  3.8150290835619242e+04  3.8156534224903604e+04  3.8164884528696370e+04  3.8178692591101913e+04  3.8200662637225796e+04  4.1744457664442925e+04  4.1868150561566530e+04  4.1993144581244327e+04  4.2119206344539212e+04  4.2246007004153500e+04  4.2373038252162027e+04  4.2499519611984149e+04  4.2624303760026254e+04  4.2745787971334757e+04  4.2861840674086241e+04  4.2969752401875383e+04  4.3066220043704518e+04  4.3147372130741795e+04  4.3208840926710000e+04  4.3245884319798221e+04  4.3253557035361962e+04  4.3226926677402473e+04  4.3161325840057922e+04  4.3052627381448176e+04  4.2897526366685546e+04  4.2693809635941303e+04  4.2440592868508102e+04  4.2138505710561949e+04  4.1789808141239875e+04  4.1398425658721164e+04  4.0969896711213245e+04  4.0511232488165107e+04  4.0030695984841943e+04  3.9537513376680989e+04  3.9041535488968322e+04  3.8552870020471099e+04  3.8081505955218352e+04  3.7636950365152137e+04  3.7227894944004700e+04  3.6861925702259206e+04  3.6545284969031971e+04  3.6282690829067142e+04  3.6077215864006910e+04  3.5930224833164684e+04  3.5841369730411301e+04  3.5808640264585127e+04  3.5828467833423070e+04  3.5895881021351859e+04  3.6004710107778985e+04  3.6147836717777194e+04  3.6317482486891080e+04  3.6505527602023307e+04  3.6703846714603220e+04  3.6904646568532233e+04  3.7100787380953443e+04  3.7286069137356986e+04  3.7455464909866714e+04  3.7605286199055794e+04  3.7733269940068014e+04  3.7838582715963486e+04  3.7921744188455821e+04  3.7984478005710516e+04  3.8029503745591697e+04  3.8060287236770535e+04  3.8080768553239235e+04  3.8095087056615906e+04  3.8107321267040636e+04  3.8121258457089592e+04  3.8140205153968454e+04  3.8166845677646641e+04  4.1822995991551128e+04  4.1945045495848644e+04  4.2067788093049996e+04  4.2191202720173700e+04  4.2315225423903095e+04  4.2439657266486094e+04  4.2564060059321258e+04  4.2687646993552582e+04  4.2809176784358679e+04  4.2926861018060335e+04  4.3038294857647626e+04  4.3140421013760475e+04  4.3229535841608762e+04  4.3301344531011229e+04  4.3351069615871493e+04  4.3373613507354617e+04  4.3363771606221504e+04  4.3316488032837660e+04  4.3227141494161806e+04  4.3091844741148620e+04  4.2907737960516621e+04  4.2673254776522874e+04  4.2388339696913172e+04  4.2054598027493477e+04  4.1675363461616122e+04  4.1255674409444524e+04  4.0802157095160750e+04  4.0322820756842528e+04  3.9826777092213990e+04  3.9323901615341601e+04  3.8824458218926608e+04  3.8338709651701676e+04  3.7876535830492074e+04  3.7447079241033200e+04  3.7058432716936135e+04  3.6717380329597043e+04  3.6429197676889518e+04  3.6197514098818174e+04  3.6024236624643905e+04  3.5909533851801221e+04  3.5851877298270687e+04  3.5848137684208996e+04  3.5893733608325660e+04  3.5982829719612928e+04  3.6108580391351454e+04  3.6263412929635539e+04  3.6439341589865071e+04  3.6628300474790776e+04  3.6822480280818010e+04  3.7014651470782926e+04  3.7198455372139004e+04  3.7368645359022034e+04  3.7521262843781071e+04  3.7653737137006101e+04  3.7764903896890311e+04  3.7854943217999258e+04  3.7925244639739358e+04  3.7978211748661794e+04  3.8017023019960354e+04  3.8045367741498812e+04  3.8067176206079443e+04  3.8086362010160170e+04  3.8106591611851800e+04  3.8131092731778197e+04  3.8162509197626227e+04  4.1894950830670263e+04  4.2013656612101593e+04  4.2132262217478674e+04  4.2250977868941460e+04  4.2370032273802368e+04  4.2489572690722860e+04  4.2609549058404875e+04  4.2729589552572106e+04  4.2848876683422852e+04  4.2966034298177627e+04  4.3079036480573086e+04  4.3185149234069679e+04  4.3280914915565765e+04  4.3362187597568285e+04  4.3424224864808086e+04  4.3461838040585862e+04  4.3469598615505492e+04  4.3442093947974325e+04  4.3374220468789994e+04  4.3261498104618091e+04  4.3100385961180196e+04  4.2888577007953972e+04  4.2625249037166912e+04  4.2311250819052220e+04  4.1949206186296062e+04  4.1543524506963266e+04  4.1100313113478682e+04  4.0627194982369707e+04  4.0133042419275524e+04  3.9627643824981678e+04  3.9121325087754332e+04  3.8624549328557128e+04  3.8147518528006221e+04  3.7699798246124781e+04  3.7289982755508114e+04  3.6925413168093954e+04  3.6611956302992585e+04  3.6353847772273592e+04  3.6153599495938724e+04  3.6011969767382914e+04  3.5927992972001528e+04  3.5899065784240789e+04  3.5921086667134063e+04  3.5988645285294479e+04  3.6095257620235410e+04  3.6233640933182673e+04  3.6396020284149694e+04  3.6574455365370399e+04  3.6761173425444431e+04  3.6948891644737698e+04  3.7131111062493386e+04  3.7302364507854836e+04  3.7458403168462028e+04  3.7596310362531185e+04  3.7714536389169254e+04  3.7812854409592444e+04  3.7892243426298970e+04  3.7954709850142601e+04  3.8003063275758752e+04  3.8040664539550919e+04  3.8071164784454944e+04  3.8098253221368723e+04  3.8125428870714415e+04  3.8155808215556855e+04  3.8191976857440655e+04  4.1960153249357871e+04  4.2073838557182164e+04  4.2186435575363663e+04  4.2298399668597071e+04  4.2410274293599672e+04  4.2522583632290938e+04  4.2635705265542354e+04  4.2749730526229163e+04  4.2864322113491020e+04  4.2978579975778572e+04  4.3090927249799686e+04  4.3199028075383256e+04  4.3299748315932869e+04  4.3389168546751505e+04  4.3462656105057242e+04  4.3514999548977452e+04  4.3540604643887520e+04  4.3533746179218018e+04  4.3488864833543958e+04  4.3400893387712000e+04  4.3265592366463439e+04  4.3079872236272604e+04  4.2842078120835795e+04  4.2552213990437682e+04  4.2212086575862937e+04  4.1825354691975801e+04  4.1397476758191879e+04  4.0935557331103737e+04  4.0448101506666404e+04  3.9944693163212403e+04  3.9435618382888904e+04  3.8931458448256046e+04  3.8442677353091094e+04  3.7979226956942752e+04  3.7550189245522510e+04  3.7163470350440934e+04  3.6825555829751218e+04  3.6541331945626487e+04  3.6313973836255740e+04  3.6144898835827022e+04  3.6033781731105213e+04  3.5978628186748661e+04  3.5975902487897896e+04  3.6020705644691072e+04  3.6106999345809294e+04  3.6227869963947756e+04  3.6375824759521209e+04  3.6543109801432198e+04  3.6722036341986328e+04  3.6905299999121140e+04  3.7086275687708410e+04  3.7259271276595886e+04  3.7419724694602010e+04  3.7564332656300976e+04  3.7691104029289156e+04  3.7799336581194060e+04  3.7889521745423088e+04  3.7963187425506461e+04  3.8022693112401408e+04  3.8070994301638297e+04  3.8111394192037224e+04  3.8147299989055493e+04  3.8181999084623843e+04  3.8218467328960949e+04  3.8259217983238901e+04  4.2018657809100820e+04  4.2125731592086137e+04  4.2230530727482983e+04  4.2333763625128588e+04  4.2436303751775798e+04  4.2539075376729706e+04  4.2642915139121651e+04  4.2748417330095399e+04  4.2855772918795890e+04  4.2964613939242867e+04  4.3073875772420317e+04  4.3181690014978107e+04  4.3285319958354383e+04  4.3381149162805275e+04  4.3464731171358646e+04  4.3530905073321286e+04  4.3573977458751637e+04  4.3587966458842762e+04  4.3566898317209270e+04  4.3505141690726290e+04  4.3397760159529556e+04  4.3240859824701263e+04  4.3031906965129368e+04  4.2769990971793610e+04  4.2456010419295861e+04  4.2092765113739770e+04  4.1684943883926317e+04  4.1239006063760760e+04  4.0762963133329264e+04  4.0266074847623269e+04  3.9758480467338588e+04  3.9250789728894779e+04  3.8753659607917521e+04  3.8277381790843501e+04  3.7831502487679238e+04  3.7424491481974597e+04  3.7063471940856543e+04  3.6754017294851474e+04  3.6500017079239071e+04  3.6303610383791703e+04  3.6165183568989247e+04  3.6083427984480535e+04  3.6055453180176766e+04  3.6076951048445990e+04  3.6142406017213725e+04  3.6245345497890390e+04  3.6378623154803150e+04  3.6534725319103411e+04  3.6706088356091990e+04  3.6885412502107938e+04  3.7065956160691057e+04  3.7241794368760813e+04  3.7408026420696617e+04  3.7560920532376942e+04  3.7697987726775609e+04  3.7817982374708045e+04  3.7920832414641554e+04  3.8007507538838530e+04  3.8079837968012442e+04  3.8140299400714292e+04  3.8191781090725570e+04  3.8237353777669538e+04  3.8280052572274857e+04  3.8322687215297228e+04  3.8367688790465625e+04  4.2070713577611008e+04  4.2169733572754201e+04  4.2265098154027510e+04  4.2357770059432674e+04  4.2448960239504348e+04  4.2540007393382686e+04  4.2632228976015678e+04  4.2726751810898335e+04  4.2824332765415449e+04  4.2925181683258794e+04  4.3028799803996866e+04  4.3133847160017271e+04  4.3238051879742889e+04  4.3338172910193694e+04  4.3430025375653313e+04  4.3508574602517721e+04  4.3568100794700818e+04  4.3602431548292327e+04  4.3605234072505562e+04  4.3570353499432465e+04  4.3492178517301742e+04  4.3366011348195316e+04  4.3188416431177560e+04  4.2957521604345398e+04  4.2673247450476141e+04  4.2337444838206204e+04  4.1953927268165011e+04  4.1528392797049833e+04  4.1068239171062953e+04  4.0582284324225322e+04  4.0080411583461602e+04  3.9573163959725054e+04  3.9071314307494999e+04  3.8585437817612517e+04  3.8125510581046867e+04  3.7700553454195884e+04  3.7318334987778937e+04  3.6985141598613998e+04  3.6705618192242902e+04  3.6482678574382066e+04  3.6317482416601866e+04  3.6209474172570837e+04  3.6156478850821069e+04  3.6154849480553603e+04  3.6199660983374182e+04  3.6284944604130105e+04  3.6403955855283799e+04  3.6549467113336417e+04  3.6714073817033437e+04  3.6890501072337880e+04  3.7071895869701293e+04  3.7252089541698202e+04  3.7425815878878690e+04  3.7588872610948209e+04  3.7738217630115905e+04  3.7871996027238973e+04  3.7989499197414058e+04  3.8091062338239091e+04  3.8177911026530310e+04  3.8251970755522183e+04  3.8315655068925298e+04  3.8371648175688591e+04  3.8422696799174177e+04  3.8471423782936574e+04  3.8520173002017778e+04  4.2116718039043801e+04  4.2206451880409950e+04  4.2290967006304068e+04  4.2371474688610171e+04  4.2449522320626769e+04  4.2526867549521172e+04  4.2605319466851804e+04  4.2686555222782597e+04  4.2771922933839909e+04  4.2862243626400013e+04  4.2957626089947713e+04  4.3057308850983893e+04  4.3159542998713936e+04  4.3261528285877321e+04  4.3359412776616060e+04  4.3448363300591605e+04  4.3522710101560740e+04  4.3576164401441165e+04  4.3602102303892287e+04  4.3593902841522249e+04  4.3545322487206133e+04  4.3450883689018287e+04  4.3306251597150127e+04  4.3108571736943712e+04  4.2856742393216409e+04  4.2551599086368333e+04  4.2195994574253709e+04  4.1794765776366039e+04  4.1354588047686346e+04  4.0883726292426094e+04  4.0391700433409918e+04  3.9888888814208374e+04  3.9386096577863689e+04  3.8894116702872103e+04  3.8423309367645466e+04  3.7983221206537368e+04  3.7582260605321339e+04  3.7227439340383484e+04  3.6924185399169713e+04  3.6676227330272362e+04  3.6485547276726742e+04  3.6352397961525472e+04  3.6275378077100206e+04  3.6251560365584752e+04  3.6276666688130776e+04  3.6345284145307320e+04  3.6451115548248381e+04  3.6587256177658543e+04  3.6746486949353908e+04  3.6921572160870048e+04  3.7105548367499207e+04  3.7291990087495120e+04  3.7475238337805917e+04  3.7650579653398578e+04  3.7814366221443495e+04  3.7964071815096788e+04  3.8098282903765685e+04  3.8216629103997766e+04  3.8319661463062614e+04  3.8408690463109597e+04  3.8485597776492439e+04  3.8552636559014449e+04  3.8612234490153678e+04  3.8666812063614503e+04  3.8718626103977163e+04  4.2157155574497599e+04  4.2236636902227408e+04  4.2309174110643646e+04  4.2376213902019263e+04  4.2439630086330217e+04  4.2501593242510251e+04  4.2564403033404713e+04  4.2630291761847671e+04  4.2701210436367299e+04  4.2778610608762268e+04  4.2863236451433651e+04  4.2954941926915591e+04  4.3052547473430204e+04  4.3153749405871524e+04  4.3255093214361579e+04  4.3352019115118972e+04  4.3438984550922367e+04  4.3509663867710580e+04  4.3557220214721827e+04  4.3574639069041878e+04  4.3555107075432657e+04  4.3492414675984437e+04  4.3381356937780205e+04  4.3218104730535488e+04  4.3000518502540494e+04  4.2728379653790726e+04  4.2403519875001941e+04  4.2029836396789986e+04  4.1613190110724267e+04  4.1161192968137730e+04  4.0682899822194275e+04  4.0188426927361288e+04  3.9688523876858933e+04  3.9194127450618769e+04  3.8715924702345612e+04  3.8263949074113320e+04  3.7847228128928160e+04  3.7473495522222474e+04  3.7148973960957876e+04  3.6878230828417341e+04  3.6664104323889311e+04  3.6507695515416111e+04  3.6408420484888054e+04  3.6364116402899737e+04  3.6371195445045370e+04  3.6424840497609439e+04  3.6519236251940943e+04  3.6647828384289991e+04  3.6803602101089549e+04  3.6979369632477203e+04  3.7168054652768631e+04  3.7362960524728798e+04  3.7558009093574336e+04  3.7747937757061358e+04  3.7928444780458616e+04  3.8096276168843928e+04  3.8249251523230945e+04  3.8386230729939161e+04  3.8507027554324028e+04  3.8612279759103054e+04  3.8703287884894438e+04  3.8781836115883183e+04  3.8850008678815517e+04  3.8910014115845319e+04  3.8964027772987887e+04  4.2192523338872255e+04  4.2261099980464503e+04  4.2320874201779174e+04  4.2373507727086544e+04  4.2421181574182177e+04  4.2466462305386252e+04  4.2512126609508312e+04  4.2560953010788719e+04  4.2615492355302435e+04  4.2677830829249484e+04  4.2749360522741787e+04  4.2830572956616001e+04  4.2920890579431798e+04  4.3018550069527177e+04  4.3120549372469068e+04  4.3222667759080665e+04  4.3319564768257114e+04  4.3404959677888852e+04  4.3471888169436832e+04  4.3513027285807912e+04  4.3521073964402553e+04  4.3489156868201579e+04  4.3411256583297407e+04  4.3282606196158529e+04  4.3100043431177270e+04  4.2862287337778886e+04  4.2570117068009436e+04  4.2226437297921555e+04  4.1836223656321272e+04  4.1406351166994020e+04  4.0945318060044119e+04  4.0462885260292009e+04  3.9969657515545754e+04  3.9476634935314243e+04  3.8994763552181568e+04  3.8534510703694184e+04  3.8105486220871455e+04  3.7716124468306080e+04  3.7373436121228791e+04  3.7082832982479871e+04  3.6848024697255969e+04  3.6670983177900329e+04  3.6551968868908662e+04  3.6489612384669672e+04  3.6481045110140083e+04  3.6522072598162034e+04  3.6607384621367695e+04  3.6730795282763269e+04  3.6885505590871195e+04  3.7064379493652123e+04  3.7260222832537380e+04  3.7466053408993655e+04  3.7675349742715829e+04  3.7882266453577504e+04  3.8081805678972720e+04  3.8269936515402776e+04  3.8443657931231406e+04  3.8601004569699384e+04  3.8740998896954727e+04  3.8863556793141535e+04  3.8969356548553835e+04  3.9059683048973951e+04  3.9136259604492203e+04  3.9201079435519088e+04  3.9256247445024863e+04  4.2223248394865725e+04  4.2280619937657408e+04  4.2327235723276186e+04  4.2364945029345174e+04  4.2396207770549845e+04  4.2423958533673285e+04  4.2451424777548331e+04  4.2481908180297636e+04  4.2518541141898313e+04  4.2564032656572119e+04  4.2620419066593116e+04  4.2688835607994166e+04  4.2769324235074964e+04  4.2860692056446416e+04  4.2960432894061065e+04  4.3064721997592453e+04  4.3168490768097370e+04  4.3265584409238887e+04  4.3349000715892478e+04  4.3411202822840918e+04  4.3444492930174245e+04  4.3441428246108226e+04  4.3395255258120931e+04  4.3300334668446398e+04  4.3152527595767562e+04  4.2949514476723525e+04  4.2691021734855989e+04  4.2378937579550809e+04  4.2017306711242083e+04  4.1612203352685385e+04  4.1171491789646454e+04  4.0704492332636430e+04  4.0221577293886032e+04  3.9733725510760829e+04  3.9252064856439531e+04  3.8787430224817908e+04  3.8349960213934552e+04  3.7948749983364396e+04  3.7591571454666322e+04  3.7284666028818341e+04  3.7032609981994043e+04  3.6838249059613700e+04  3.6702696600710609e+04  3.6625388601468097e+04  3.6604189087712701e+04  3.6635539542570048e+04  3.6714646477499053e+04  3.6835701202274380e+04  3.6992125272650199e+04  3.717683399771696