<?xml version="1.0"?>
<VTKFile type="UnstructuredGrid"  version="0.1"  >
<UnstructuredGrid>
<Piece  NumberOfPoints="4225" NumberOfCells="8192">
<Points>
<DataArray  type="Float64"  NumberOfComponents="3"  format="ascii">0 0 0  0.015625 0 0  0.03125 0 0  0.046875 0 0  0.0625 0 0  0.078125 0 0  0.09375 0 0  0.109375 0 0  0.125 0 0  0.140625 0 0  0.15625 0 0  0.171875 0 0  0.1875 0 0  0.203125 0 0  0.21875 0 0  0.234375 0 0  0.25 0 0  0.265625 0 0  0.28125 0 0  0.296875 0 0  0.3125 0 0  0.328125 0 0  0.34375 0 0  0.359375 0 0  0.375 0 0  0.390625 0 0  0.40625 0 0  0.421875 0 0  0.4375 0 0  0.453125 0 0  0.46875 0 0  0.484375 0 0  0.5 0 0  0.515625 0 0  0.53125 0 0  0.546875 0 0  0.5625 0 0  0.578125 0 0  0.59375 0 0  0.609375 0 0  0.625 0 0  0.640625 0 0  0.65625 0 0  0.671875 0 0  0.6875 0 0  0.703125 0 0  0.71875 0 0  0.734375 0 0  0.75 0 0  0.765625 0 0  0.78125 0 0  0.796875 0 0  0.8125 0 0  0.828125 0 0  0.84375 0 0  0.859375 0 0  0.875 0 0  0.890625 0 0  0.90625 0 0  0.921875 0 0  0.9375 0 0  0.953125 0 0  0.96875 0 0  0.984375 0 0  1 0 0  0 0.015625 0  0.015625 0.015625 0  0.03125 0.015625 0  0.046875 0.015625 0  0.0625 0.015625 0  0.078125 0.015625 0  0.09375 0.015625 0  0.109375 0.015625 0  0.125 0.015625 0  0.140625 0.015625 0  0.15625 0.015625 0  0.171875 0.015625 0  0.1875 0.015625 0  0.203125 0.015625 0  0.21875 0.015625 0  0.234375 0.015625 0  0.25 0.015625 0  0.265625 0.015625 0  0.28125 0.015625 0  0.296875 0.015625 0  0.3125 0.015625 0  0.328125 0.015625 0  0.34375 0.015625 0  0.359375 0.015625 0  0.375 0.015625 0  0.390625 0.015625 0  0.40625 0.015625 0  0.421875 0.015625 0  0.4375 0.015625 0  0.453125 0.015625 0  0.46875 0.015625 0  0.484375 0.015625 0  0.5 0.015625 0  0.515625 0.015625 0  0.53125 0.015625 0  0.546875 0.015625 0  0.5625 0.015625 0  0.578125 0.015625 0  0.59375 0.015625 0  0.609375 0.015625 0  0.625 0.015625 0  0.640625 0.015625 0  0.65625 0.015625 0  0.671875 0.015625 0  0.6875 0.015625 0  0.703125 0.015625 0  0.71875 0.015625 0  0.734375 0.015625 0  0.75 0.015625 0  0.765625 0.015625 0  0.78125 0.015625 0  0.796875 0.015625 0  0.8125 0.015625 0  0.828125 0.015625 0  0.84375 0.015625 0  0.859375 0.015625 0  0.875 0.015625 0  0.890625 0.015625 0  0.90625 0.015625 0  0.921875 0.015625 0  0.9375 0.015625 0  0.953125 0.015625 0  0.96875 0.015625 0  0.984375 0.015625 0  1 0.015625 0  0 0.03125 0  0.015625 0.03125 0  0.03125 0.03125 0  0.046875 0.03125 0  0.0625 0.03125 0  0.078125 0.03125 0  0.09375 0.03125 0  0.109375 0.03125 0  0.125 0.03125 0  0.140625 0.03125 0  0.15625 0.03125 0  0.171875 0.03125 0  0.1875 0.03125 0  0.203125 0.03125 0  0.21875 0.03125 0  0.234375 0.03125 0  0.25 0.03125 0  0.265625 0.03125 0  0.28125 0.03125 0  0.296875 0.03125 0  0.3125 0.03125 0  0.328125 0.03125 0  0.34375 0.03125 0  0.359375 0.03125 0  0.375 0.03125 0  0.390625 0.03125 0  0.40625 0.03125 0  0.421875 0.03125 0  0.4375 0.03125 0  0.453125 0.03125 0  0.46875 0.03125 0  0.484375 0.03125 0  0.5 0.03125 0  0.515625 0.03125 0  0.53125 0.03125 0  0.546875 0.03125 0  0.5625 0.03125 0  0.578125 0.03125 0  0.59375 0.03125 0  0.609375 0.03125 0  0.625 0.03125 0  0.640625 0.03125 0  0.65625 0.03125 0  0.671875 0.03125 0  0.6875 0.03125 0  0.703125 0.03125 0  0.71875 0.03125 0  0.734375 0.03125 0  0.75 0.03125 0  0.765625 0.03125 0  0.78125 0.03125 0  0.796875 0.03125 0  0.8125 0.03125 0  0.828125 0.03125 0  0.84375 0.03125 0  0.859375 0.03125 0  0.875 0.03125 0  0.890625 0.03125 0  0.90625 0.03125 0  0.921875 0.03125 0  0.9375 0.03125 0  0.953125 0.03125 0  0.96875 0.03125 0  0.984375 0.03125 0  1 0.03125 0  0 0.046875 0  0.015625 0.046875 0  0.03125 0.046875 0  0.046875 0.046875 0  0.0625 0.046875 0  0.078125 0.046875 0  0.09375 0.046875 0  0.109375 0.046875 0  0.125 0.046875 0  0.140625 0.046875 0  0.15625 0.046875 0  0.171875 0.046875 0  0.1875 0.046875 0  0.203125 0.046875 0  0.21875 0.046875 0  0.234375 0.046875 0  0.25 0.046875 0  0.265625 0.046875 0  0.28125 0.046875 0  0.296875 0.046875 0  0.3125 0.046875 0  0.328125 0.046875 0  0.34375 0.046875 0  0.359375 0.046875 0  0.375 0.046875 0  0.390625 0.046875 0  0.40625 0.046875 0  0.421875 0.046875 0  0.4375 0.046875 0  0.453125 0.046875 0  0.46875 0.046875 0  0.484375 0.046875 0  0.5 0.046875 0  0.515625 0.046875 0  0.53125 0.046875 0  0.546875 0.046875 0  0.5625 0.046875 0  0.578125 0.046875 0  0.59375 0.046875 0  0.609375 0.046875 0  0.625 0.046875 0  0.640625 0.046875 0  0.65625 0.046875 0  0.671875 0.046875 0  0.6875 0.046875 0  0.703125 0.046875 0  0.71875 0.046875 0  0.734375 0.046875 0  0.75 0.046875 0  0.765625 0.046875 0  0.78125 0.046875 0  0.796875 0.046875 0  0.8125 0.046875 0  0.828125 0.046875 0  0.84375 0.046875 0  0.859375 0.046875 0  0.875 0.046875 0  0.890625 0.046875 0  0.90625 0.046875 0  0.921875 0.046875 0  0.9375 0.046875 0  0.953125 0.046875 0  0.96875 0.046875 0  0.984375 0.046875 0  1 0.046875 0  0 0.0625 0  0.015625 0.0625 0  0.03125 0.0625 0  0.046875 0.0625 0  0.0625 0.0625 0  0.078125 0.0625 0  0.09375 0.0625 0  0.109375 0.0625 0  0.125 0.0625 0  0.140625 0.0625 0  0.15625 0.0625 0  0.171875 0.0625 0  0.1875 0.0625 0  0.203125 0.0625 0  0.21875 0.0625 0  0.234375 0.0625 0  0.25 0.0625 0  0.265625 0.0625 0  0.28125 0.0625 0  0.296875 0.0625 0  0.3125 0.0625 0  0.328125 0.0625 0  0.34375 0.0625 0  0.359375 0.0625 0  0.375 0.0625 0  0.390625 0.0625 0  0.40625 0.0625 0  0.421875 0.0625 0  0.4375 0.0625 0  0.453125 0.0625 0  0.46875 0.0625 0  0.484375 0.0625 0  0.5 0.0625 0  0.515625 0.0625 0  0.53125 0.0625 0  0.546875 0.0625 0  0.5625 0.0625 0  0.578125 0.0625 0  0.59375 0.0625 0  0.609375 0.0625 0  0.625 0.0625 0  0.640625 0.0625 0  0.65625 0.0625 0  0.671875 0.0625 0  0.6875 0.0625 0  0.703125 0.0625 0  0.71875 0.0625 0  0.734375 0.0625 0  0.75 0.0625 0  0.765625 0.0625 0  0.78125 0.0625 0  0.796875 0.0625 0  0.8125 0.0625 0  0.828125 0.0625 0  0.84375 0.0625 0  0.859375 0.0625 0  0.875 0.0625 0  0.890625 0.0625 0  0.90625 0.0625 0  0.921875 0.0625 0  0.9375 0.0625 0  0.953125 0.0625 0  0.96875 0.0625 0  0.984375 0.0625 0  1 0.0625 0  0 0.078125 0  0.015625 0.078125 0  0.03125 0.078125 0  0.046875 0.078125 0  0.0625 0.078125 0  0.078125 0.078125 0  0.09375 0.078125 0  0.109375 0.078125 0  0.125 0.078125 0  0.140625 0.078125 0  0.15625 0.078125 0  0.171875 0.078125 0  0.1875 0.078125 0  0.203125 0.078125 0  0.21875 0.078125 0  0.234375 0.078125 0  0.25 0.078125 0  0.265625 0.078125 0  0.28125 0.078125 0  0.296875 0.078125 0  0.3125 0.078125 0  0.328125 0.078125 0  0.34375 0.078125 0  0.359375 0.078125 0  0.375 0.078125 0  0.390625 0.078125 0  0.40625 0.078125 0  0.421875 0.078125 0  0.4375 0.078125 0  0.453125 0.078125 0  0.46875 0.078125 0  0.484375 0.078125 0  0.5 0.078125 0  0.515625 0.078125 0  0.53125 0.078125 0  0.546875 0.078125 0  0.5625 0.078125 0  0.578125 0.078125 0  0.59375 0.078125 0  0.609375 0.078125 0  0.625 0.078125 0  0.640625 0.078125 0  0.65625 0.078125 0  0.671875 0.078125 0  0.6875 0.078125 0  0.703125 0.078125 0  0.71875 0.078125 0  0.734375 0.078125 0  0.75 0.078125 0  0.765625 0.078125 0  0.78125 0.078125 0  0.796875 0.078125 0  0.8125 0.078125 0  0.828125 0.078125 0  0.84375 0.078125 0  0.859375 0.078125 0  0.875 0.078125 0  0.890625 0.078125 0  0.90625 0.078125 0  0.921875 0.078125 0  0.9375 0.078125 0  0.953125 0.078125 0  0.96875 0.078125 0  0.984375 0.078125 0  1 0.078125 0  0 0.09375 0  0.015625 0.09375 0  0.03125 0.09375 0  0.046875 0.09375 0  0.0625 0.09375 0  0.078125 0.09375 0  0.09375 0.09375 0  0.109375 0.09375 0  0.125 0.09375 0  0.140625 0.09375 0  0.15625 0.09375 0  0.171875 0.09375 0  0.1875 0.09375 0  0.203125 0.09375 0  0.21875 0.09375 0  0.234375 0.09375 0  0.25 0.09375 0  0.265625 0.09375 0  0.28125 0.09375 0  0.296875 0.09375 0  0.3125 0.09375 0  0.328125 0.09375 0  0.34375 0.09375 0  0.359375 0.09375 0  0.375 0.09375 0  0.390625 0.09375 0  0.40625 0.09375 0  0.421875 0.09375 0  0.4375 0.09375 0  0.453125 0.09375 0  0.46875 0.09375 0  0.484375 0.09375 0  0.5 0.09375 0  0.515625 0.09375 0  0.53125 0.09375 0  0.546875 0.09375 0  0.5625 0.09375 0  0.578125 0.09375 0  0.59375 0.09375 0  0.609375 0.09375 0  0.625 0.09375 0  0.640625 0.09375 0  0.65625 0.09375 0  0.671875 0.09375 0  0.6875 0.09375 0  0.703125 0.09375 0  0.71875 0.09375 0  0.734375 0.09375 0  0.75 0.09375 0  0.765625 0.09375 0  0.78125 0.09375 0  0.796875 0.09375 0  0.8125 0.09375 0  0.828125 0.09375 0  0.84375 0.09375 0  0.859375 0.09375 0  0.875 0.09375 0  0.890625 0.09375 0  0.90625 0.09375 0  0.921875 0.09375 0  0.9375 0.09375 0  0.953125 0.09375 0  0.96875 0.09375 0  0.984375 0.09375 0  1 0.09375 0  0 0.109375 0  0.015625 0.109375 0  0.03125 0.109375 0  0.046875 0.109375 0  0.0625 0.109375 0  0.078125 0.109375 0  0.09375 0.109375 0  0.109375 0.109375 0  0.125 0.109375 0  0.140625 0.109375 0  0.15625 0.109375 0  0.171875 0.109375 0  0.1875 0.109375 0  0.203125 0.109375 0  0.21875 0.109375 0  0.234375 0.109375 0  0.25 0.109375 0  0.265625 0.109375 0  0.28125 0.109375 0  0.296875 0.109375 0  0.3125 0.109375 0  0.328125 0.109375 0  0.34375 0.109375 0  0.359375 0.109375 0  0.375 0.109375 0  0.390625 0.109375 0  0.40625 0.109375 0  0.421875 0.109375 0  0.4375 0.109375 0  0.453125 0.109375 0  0.46875 0.109375 0  0.484375 0.109375 0  0.5 0.109375 0  0.515625 0.109375 0  0.53125 0.109375 0  0.546875 0.109375 0  0.5625 0.109375 0  0.578125 0.109375 0  0.59375 0.109375 0  0.609375 0.109375 0  0.625 0.109375 0  0.640625 0.109375 0  0.65625 0.109375 0  0.671875 0.109375 0  0.6875 0.109375 0  0.703125 0.109375 0  0.71875 0.109375 0  0.734375 0.109375 0  0.75 0.109375 0  0.765625 0.109375 0  0.78125 0.109375 0  0.796875 0.109375 0  0.8125 0.109375 0  0.828125 0.109375 0  0.84375 0.109375 0  0.859375 0.109375 0  0.875 0.109375 0  0.890625 0.109375 0  0.90625 0.109375 0  0.921875 0.109375 0  0.9375 0.109375 0  0.953125 0.109375 0  0.96875 0.109375 0  0.984375 0.109375 0  1 0.109375 0  0 0.125 0  0.015625 0.125 0  0.03125 0.125 0  0.046875 0.125 0  0.0625 0.125 0  0.078125 0.125 0  0.09375 0.125 0  0.109375 0.125 0  0.125 0.12
[...]
<PointData  Scalars="gamma"> 
<DataArray  type="Float64"  Name="gamma"  format="ascii">4.0656506415260264e+04  4.0683077792400327e+04  4.0700868860962888e+04  4.0708316324986619e+04  4.0703952237957456e+04  4.0686458426863574e+04  4.0654718712409434e+04  4.0607866178225559e+04  4.0545322846730516e+04  4.0466829415032487e+04  4.0372463181888234e+04  4.0262642930157177e+04  4.0138120276724170e+04  3.9999957809788815e+04  3.9849495141030893e+04  3.9688304745785113e+04  3.9518140091438887e+04  3.9340879016705927e+04  3.9158465590478627e+04  3.8972853733229895e+04  3.8785955727415356e+04  3.8599598391706444e+04  3.8415489174634276e+04  3.8235193772121915e+04  3.8060126131123849e+04  3.7891550910942460e+04  3.7730597677570491e+04  3.7578285346212506e+04  3.7435554702588524e+04  3.7303306261701924e+04  3.7182440296841181e+04  3.7073895619947456e+04  3.6978683638167779e+04  3.6897914361865689e+04  3.6832811396183271e+04  3.6784713497816658e+04  3.6755060994110594e+04  3.6745366204500366e+04  3.6757167928219511e+04  3.6791971017065356e+04  3.6851172989404404e+04  3.6935980518825440e+04  3.7047319413498357e+04  3.7185742364197518e+04  3.7351339259510765e+04  3.7543655226268718e+04  3.7761621727481448e+04  3.8003506006122981e+04  3.8266883858228131e+04  3.8548640104148741e+04  3.8845000156732858e+04  3.9151594730986530e+04  3.9463558006466847e+04  3.9775657495553438e+04  4.0082451601810208e+04  4.0378468547319782e+04  4.0658398229585036e+04  4.0917286885450929e+04  4.1150723429678248e+04  4.1355006188089552e+04  4.1527279562248870e+04  4.1665631934775374e+04  4.1769148720632475e+04  4.1837917649052790e+04  4.1872986802796040e+04  4.0724815166640146e+04  4.0753360717444695e+04  4.0772159608744514e+04  4.0779505481600929e+04  4.0773803665920932e+04  4.0753631821212584e+04  4.0717797988120336e+04  4.0665392969514287e+04  4.0595834081077075e+04  4.0508897648015984e+04  4.0404738166097690e+04  4.0283892761421703e+04  4.0147270426216986e+04  3.9996126415872968e+04  3.9832023096200341e+04  3.9656779359785251e+04  3.9472411422977799e+04  3.9281068319890263e+04  3.9084965693072700e+04  3.8886321527595814e+04  3.8687297290107286e+04  3.8489947537383960e+04  3.8296180482917771e+04  3.8107731296353129e+04  3.7926149104493779e+04  3.7752797810324184e+04  3.7588869992923108e+04  3.7435412338733418e+04  3.7293360323042572e+04  3.7163579246441892e+04  3.7046908267799321e+04  3.6944203791701504e+04  3.6856378486731526e+04  3.6784432344701439e+04  3.6729472541890485e+04  3.6692719419887959e+04  3.6675496640339567e+04  3.6679204446694959e+04  3.6705275939529456e+04  3.6755117288045207e+04  3.6830033807390668e+04  3.6931144783143020e+04  3.7059290782471253e+04  3.7214937926336468e+04  3.7398084184623083e+04  3.7608173173363044e+04  3.7844021152557485e+04  3.8103762907605858e+04  3.8384821899633025e+04  3.8683909436093054e+04  3.8997056592243345e+04  3.9319681174194928e+04  3.9646690159588892e+04  3.9972615840592785e+04  4.0291781449078124e+04  4.0598489554983986e+04  4.0887224239178737e+04  4.1152856221922833e+04  4.1390839036796817e+04  4.1597384183062866e+04  4.1769604077814321e+04  4.1905613550888353e+04  4.2004583435691668e+04  4.2066743243313584e+04  4.2093333615357173e+04  4.0796421316102955e+04  4.0827184222156146e+04  4.0847226579669834e+04  4.0854696667991411e+04  4.0847871557822160e+04  4.0825224210092128e+04  4.0785487580788307e+04  4.0727712299090876e+04  4.0651314624550163e+04  4.0556111769222443e+04  4.0442342280291945e+04  4.0310669983002816e+04  4.0162170927819607e+04  3.9998303799476918e+04  3.9820865250561437e+04  3.9631932539997782e+04  3.9433796616872241e+04  3.9228889337067332e+04  3.9019708798706801e+04  3.8808746818881038e+04  3.8598422356209034e+04  3.8391024237262485e+04  3.8188665908877309e+04  3.7993254160128432e+04  3.7806472887598720e+04  3.7629782065195483e+04  3.7464431171795499e+04  3.7311485469141757e+04  3.7171862747583087e+04  3.7046377504065051e+04  3.6935789017776682e+04  3.6840849472845322e+04  3.6762348167847769e+04  3.6701147964102456e+04  3.6658210463295982e+04  3.6634606961279584e+04  3.6631512975731421e+04  3.6650185054055175e+04  3.6691919586804426e+04  3.6757994427284691e+04  3.6849595195197995e+04  3.6967729170915831e+04  3.7113130624487159e+04  3.7286162235446747e+04  3.7486717917574024e+04  3.7714132839934544e+04  3.7967106700232791e+04  3.8243646317818289e+04  3.8541033320042166e+04  3.8855822038867831e+04  3.9183871660297831e+04  3.9520415142825899e+04  3.9860165447608662e+04  4.0197457264973382e+04  4.0526419811895925e+04  4.0841173617082612e+04  4.1136041765892449e+04  4.1405764137147191e+04  4.1645702006425476e+04  4.1852020235403754e+04  4.2021835231530233e+04  4.2153318931180213e+04  4.2245752073830648e+04  4.2299523707502296e+04  4.2316077818364887e+04  4.0871205686601723e+04  4.0904495393236553e+04  4.0926100099935167e+04  4.0934021500092851e+04  4.0926407615718490e+04  4.0901626536809519e+04  4.0858336752159004e+04  4.0795550273187262e+04  4.0712684908331044e+04  4.0609602471069033e+04  4.0486630385584518e+04  4.0344565050814170e+04  4.0184656373922531e+04  4.0008574008742798e+04  3.9818356945160573e+04  3.9616349104003355e+04  3.9405124420787746e+04  3.9187405490470679e+04  3.8965980157022153e+04  3.8743620454214026e+04  3.8523008049478369e+04  3.8306669842960364e+04  3.8096926675054390e+04  3.7895857251582696e+04  3.7705278462035203e+04  3.7526742296076256e+04  3.7361548604920907e+04  3.7210772049561230e+04  3.7075300764550382e+04  3.6955883577771849e+04  3.6853182094254567e+04  3.6767823603848185e+04  3.6700450632622145e+04  3.6651763043794119e+04  3.6622548913617866e+04  3.6613700955922519e+04  3.6626216026123417e+04  3.6661176167056663e+04  3.6719710718070630e+04  3.6802940140505125e+04  3.6911903359498348e+04  3.7047471529306516e+04  3.7210252149074557e+04  3.7400488348365943e+04  3.7617958893069466e+04  3.7861885000600836e+04  3.8130850362627141e+04  3.8422740809020586e+04  3.8734709753270574e+04  3.9063174875896271e+04  3.9403850371912653e+04  3.9751817476033189e+04  4.0101633891791746e+04  4.0447480256088900e+04  4.0783339010903474e+04  4.1103198246389962e+04  4.1401270502430787e+04  4.1672214477139554e+04  4.1911346385359415e+04  4.2114827568958841e+04  4.2279816005188222e+04  4.2404571569159256e+04  4.2488508109269787e+04  4.2532189281724401e+04  4.2537269258306711e+04  4.0949025486437618e+04  4.0985222197766583e+04  4.1008796996019388e+04  4.1017604801874462e+04  4.1009664451598874e+04  4.0983239194568487e+04  4.0936913370231581e+04  4.0869661089566936e+04  4.0780902919257649e+04  4.0670547038641664e+04  4.0539012093901954e+04  4.0387229966340128e+04  4.0216627831851896e+04  4.0029090127846197e+04  3.9826902263112446e+04  3.9612679007946397e+04  3.9389281400352265e+04  3.9159726634169288e+04  3.8927095717880227e+04  3.8694443698627219e+04  3.8464716951442279e+04  3.8240681477672595e+04  3.8024865392733183e+04  3.7819517872606433e+04  3.7626585832263641e+04  3.7447708584043510e+04  3.7284229719222065e+04  3.7137224512994806e+04  3.7007540306892864e+04  3.6895846604041944e+04  3.6802691050101173e+04  3.6728557093123520e+04  3.6673918943543045e+04  3.6639289510792543e+04  3.6625257287104447e+04  3.6632508681215884e+04  3.6661833059545788e+04  3.6714108698832970e+04  3.6790268947014243e+04  3.6891249072857878e+04  3.7017915499353512e+04  3.7170980301841912e+04  3.7350904955530823e+04  3.7557798292014690e+04  3.7791314430626735e+04  3.8050557050173535e+04  3.8333996718994640e+04  3.8639408057682893e+04  3.8963833211276266e+04  3.9303577393312131e+04  3.9654241075763188e+04  4.0010791702658717e+04  4.0367675611277366e+04  4.0718968227279824e+04  4.1058557710323890e+04  4.1380354293954209e+04  4.1678514879994123e+04  4.1947670335767114e+04  4.2183141709125252e+04  4.2381131460581608e+04  4.2538876937017514e+04  4.2654755651305291e+04  4.2728335301250052e+04  4.2760365532206917e+04  4.2752712794759726e+04  4.1029706055476243e+04  4.1069262028218654e+04  4.1095305357680896e+04  4.1105544971750678e+04  4.1097870918639899e+04  4.1070441671802640e+04  4.1021767219385147e+04  4.0950783379948996e+04  4.0856912975412190e+04  4.0740110010051256e+04  4.0600883833084852e+04  4.0440301352086688e+04  4.0259966637098281e+04  4.0061978611671439e+04  3.9848868857563015e+04  3.9623522756586099e+04  3.9389088162122702e+04  3.9148876463713532e+04  3.8906261240866654e+04  3.8664579688987338e+04  3.8427041663335207e+04  3.8196650572367333e+04  3.7976139521614750e+04  3.7767925131959455e+04  3.7574080399115672e+04  3.7396326884448390e+04  3.7236045481119036e+04  3.7094304023927158e+04  3.6971899138055363e+04  3.6869408978258863e+04  3.6787252921004430e+04  3.6725753862609534e+04  3.6685198571114146e+04  3.6665891560308766e+04  3.6668198216401128e+04  3.6692573415692357e+04  3.6739572615182835e+04  3.6809843350550145e+04  3.6904096194856967e+04  3.7023055461467411e+04  3.7167391213414841e+04  3.7337635404904504e+04  3.7534086168479502e+04  3.7756705319899760e+04  3.8005015034546617e+04  3.8278000309840238e+04  3.8574024221626823e+04  3.8890763056422962e+04  3.9225168095917899e+04  3.9573460081970632e+04  3.9931161143802899e+04  4.0293167193352128e+04  4.0653861504830224e+04  4.1007267471359475e+04  4.1347235535142681e+04  4.1667656257619965e+04  4.1962688735560849e+04  4.2226991410927913e+04  4.2455941081730758e+04  4.2645825841447760e+04  4.2793998878295970e+04  4.2898982519923564e+04  4.2960515416509486e+04  4.2979539972569924e+04  4.2958131621647721e+04  4.1113029924364295e+04  4.1156466955191572e+04  4.1185565333579179e+04  4.1197889641601083e+04  4.1191201938424805e+04  4.1163555852101250e+04  4.1113386094576686e+04  4.1039588455921265e+04  4.0941585536768471e+04  4.0819374040300667e+04  4.0673550347246462e+04  4.0505312284440814e+04  4.0316436383209671e+04  4.0109231398666518e+04  3.9886470304126939e+04  3.9651304267816544e+04  3.9407163159273325e+04  3.9157647844699764e+04  3.8906419872443425e+04  3.8657094116397027e+04  3.8413139564300065e+04  3.8177792763767051e+04  3.7953987541927490e+04  3.7744303571491415e+04  3.7550935240372324e+04  3.7375681157488594e+04  3.7219953544873373e+04  3.7084805763853350e+04  3.6970975328999790e+04  3.6878939000320614e+04  3.6808975932741479e+04  3.6761234424572045e+04  3.6735797567394926e+04  3.6732743082446992e+04  3.6752192852586646e+04  3.6794348134473279e+04  3.6859507158591565e+04  3.6948062773965175e+04  3.7060478930865662e+04  3.7197246064362189e+04  3.7358816779690933e+04  3.7545524578464559e+04  3.7757489635543585e+04  3.7994516778122474e+04  3.8255991775582792e+04  3.8540782769266058e+04  3.8847154103761124e+04  3.9172699909794304e+04  3.9514304472376178e+04  3.9868135634397251e+04  4.0229676182859876e+04  4.0593796316430831e+04  4.0954867920272074e+04  4.1306918565384498e+04  4.1643820072978284e+04  4.1959503387454912e+04  4.2248188695165467e+04  4.2504617549312432e+04  4.2724272533158088e+04  4.2903569958195447e+04  4.3040012370306162e+04  4.3132290185366648e+04  4.3180325388493642e+04  4.3185254552648817e+04  4.3149353006789548e+04  4.1198723491905243e+04  4.1246626149303353e+04  4.1279446606195372e+04  4.1294607490723931e+04  4.1289743933397891e+04  4.1262804356441287e+04  4.1212146376655684e+04  4.1136622494096096e+04  4.1035650452237904e+04  4.0909263758917215e+04  4.0758138830277378e+04  4.0583596502527544e+04  4.0387577154090410e+04  4.0172590273779642e+04  3.9941640866786263e+04  3.9698136480180685e+04  3.9445779741960039e+04  3.9188452061215110e+04  3.8930094488599621e+04  3.8674591682979939e+04  3.8425664505638226e+04  3.8186776029901710e+04  3.7961054791142633e+04  3.7751237994780298e+04  3.7559636228219286e+04  3.7388120054068728e+04  3.7238127747971339e+04  3.7110692420819512e+04  3.7006485855970554e+04  3.6925875614601355e+04  3.6868991332672871e+04  3.6835795669964020e+04  3.6826155098244075e+04  3.6839905657335759e+04  3.6876908988289055e+04  3.6937094388336387e+04  3.7020483325556939e+04  3.7127193787323020e+04  3.7257422981261298e+04  3.7411408208317647e+04  3.7589367118694958e+04  3.7791419969693532e+04  3.8017497855548085e+04  3.8267242102736454e+04  3.8539901055337185e+04  3.8834231254215141e+04  3.9148410483426676e+04  3.9479970258230904e+04  3.9825755000213670e+04  4.0181914326695100e+04  4.0543933526136803e+04  4.0906705379244406e+04  4.1264644045551293e+04  4.1611838863239209e+04  4.1942242780765722e+04  4.2249887006108045e+04  4.2529110637882812e+04  4.2774791873323367e+04  4.2982566189596619e+04  4.3149016908377089e+04  4.3271824892879609e+04  4.3349866744779807e+04  4.3383254549689482e+04  4.3373314600407837e+04  4.3322507144059753e+04  4.1286441878130034e+04  4.1339446233161485e+04  4.1376723543510932e+04  4.1395557482643482e+04  4.1393457436768454e+04  4.1368265837006438e+04  4.1318260365782888e+04  4.1242245332582359e+04  4.1139626733243662e+04  4.1010466146980449e+04  4.0855509664517391e+04  4.0676189414928755e+04  4.0474596865738342e+04  4.0253428780437040e+04  4.0015908386182251e+04  3.9765685791783064e+04  3.9506722881702786e+04  3.9243168708716985e+04  3.8979231771021070e+04  3.8719055488225524e+04  3.8466602724271645e+04  3.8225554414234706e+04  3.7999226324988704e+04  3.7790506810437568e+04  3.7601817197173856e+04  3.7435095227352896e+04  3.7291800844361213e+04  3.7172942567025355e+04  3.7079121778950488e+04  3.7010591472676191e+04  3.6967325344289973e+04  3.6949092647761892e+04  3.6955533910904509e+04  3.6986232513278781e+04  3.7040777258417620e+04  3.7118811460962090e+04  3.7220064723957636e+04  3.7344364494869209e+04  3.7491625631957155e+04  3.7661817535883878e+04  3.7854909838167252e+04  3.8070799110866166e+04  3.8309220489227679e+04  3.8569649401452822e+04  3.8851199703210426e+04  3.9152525351007527e+04  3.9471733254171522e+04  3.9806315057970722e+04  4.0153105269479674e+04  4.0508272287301792e+04  4.0867347494808186e+04  4.1225295612538386e+04  4.1576627015759652e+04  4.1915549811153222e+04  4.2236156312899620e+04  4.2532635419957332e+04  4.2799499588387895e+04  4.3031812954048357e+04  4.3225406005845267e+04  4.3377062273042051e+04  4.3484663878856569e+04  4.3547285473165219e+04  4.3565229767970915e+04  4.3540002292838777e+04  4.3474227599140781e+04  4.1375752752085013e+04  4.1434530603615196e+04  4.1477049344445491e+04  4.1500457154217278e+04  4.1502138856358579e+04  4.1479829578498342e+04  4.1431723137134570e+04  4.1356569075330517e+04  4.1253752500875024e+04  4.1123351542145982e+04  4.0966168337833296e+04  4.0783730936623688e+04  4.0578265194441272e+04  4.0352637579846021e+04  4.0110271577874271e+04  3.9855041967638885e+04  3.9591152509663923e+04  3.9323003421992311e+04  3.9055055402250749e+04  3.8791696867132989e+04  3.8537120576073539e+04  3.8295214960627927e+04  3.8069474393128061e+04  3.7862931399906520e+04  3.7678112549366022e+04  3.7517018498802405e+04  3.7381127519023546e+04  3.7271420763579321e+04  3.7188426624343614e+04  3.7132280722781616e+04  3.7102797431106301e+04  3.7099548309889375e+04  3.7121942507743086e+04  3.7169304022078162e+04  3.7240940799483687e+04  3.7336200988937380e+04  3.7454512268924009e+04  3.7595401050636690e+04  3.7758489491162007e+04  3.7943469586787920e+04  3.8150055090632835e+04  3.8377913529384066e+04  3.8626582092588804e+04  3.8895372546045081e+04  3.9183271494625711e+04  3.9488843212570369e+04  3.9810142800780879e+04  4.0144647556076197e+04  4.0489214086907632e+04  4.0840067832440647e+04  4.1192830203153833e+04  4.1542586558399715e+04  4.1883995715369514e+04  4.2211438755015573e+04  4.2519201738791373e+04  4.2801683833302443e+04  4.3053619570643001e+04  4.3270301883255874e+04  4.3447791449548844e+04  4.3583097996492455e+04  4.3674320627050838e+04  4.3720736914052242e+04  4.3722834203530765e+04  4.3682280932593480e+04  4.3601840328518643e+04  4.1466120145328277e+04  4.1531359001835779e+04  4.1579930758381997e+04  4.1608851875767752e+04  4.1615383683288695e+04  4.1597152100618092e+04  4.1552262041460366e+04  4.1479400076097074e+04  4.1377919140835169e+04  4.1247899773650963e+04  4.1090183505481233e+04  4.0906375574494901e+04  4.0698815940283748e+04  4.0470519506911653e+04  4.0225088352418286e+04  3.9966600445364274e+04  3.9699480667085336e+04  3.9428360851609774e+04  3.9157935953470420e+04  3.8892823359142873e+04  3.8637431820349360e+04  3.8395845592986901e+04  3.8171728220772442e+04  3.7968249118911714e+04  3.7788034790811907e+04  3.7633145229754657e+04  3.7505074871394085e+04  3.7404776400894669e+04  3.7332704790246113e+04  3.7288878146106596e+04  3.7272951284741284e+04  3.7284297423411219e+04  3.7322093003476781e+04  3.7385400467597443e+04  3.7473243837198454e+04  3.7584672212172823e+04  3.7718806868702261e+04  3.7874868471401089e+04  3.8052182027066170e+04  3.8250158547301413e+04  3.8468253890146356e+04  3.8705906832049761e+04  3.8962459985951253e+04  3.9237068631229027e+04  3.9528603763266517e+04  3.9835556618755603e+04  4.0155952511127573e+04  4.0487281951104836e+04  4.0826456671911015e+04  4.1169797281130435e+04  4.1513057795611217e+04  4.1851490288717709e+04  4.2179950345153040e+04  4.2493041094469962e+04  4.2785290468274397e+04  4.3051353254287787e+04  4.3286226809662556e+04  4.3485467270071073e+04  4.3645392045186076e+04  4.3763254540824993e+04  4.3837378483782995e+04  4.3867241883003990e+04  4.3853504315702798e+04  4.3797975516890241e+04  4.3703527722908999e+04  4.1556889427180548e+04  4.1629268784398475e+04  4.1684705144091706e+04  4.1720087193624655e+04  4.1732553634556585e+04  4.1719618656364015e+04  4.1679292173643291e+04  4.1610188070336502e+04  4.1511613888970118e+04  4.1383636105731304e+04  4.1227116323339040e+04  4.1043715319895782e+04  4.0835863791675511e+04  4.0606700663267322e+04  4.0359981833496626e+04  4.0099964006893439e+04  3.9831269679164645e+04  3.9558740294048257e+04  3.9287285014207744e+04  3.9021732453027085e+04  3.8766692151155868e+04  3.8526431644401368e+04  3.8304773773409353e+04  3.8105017550161050e+04  3.7929884529411684e+04  3.7781491319088316e+04  3.7661347657619917e+04  3.7570378415323190e+04  3.7508966946601147e+04  3.7477016423030298e+04  3.7474025106305271e+04  3.7499170974297180e+04  3.7551400706630338e+04  3.7629517796253283e+04  3.7732264519198528e+04  3.7858392707569757e+04  3.8006718764921410e+04  3.8176159155432404e+04  3.8365743680432919e+04  3.8574605190995309e+04  3.8801945908772104e+04  3.9046982151937780e+04  3.9308870887636367e+04  3.9586623050393158e+04  3.9879009874257790e+04  4.0184469490529831e+04  4.0501021659965874e+04  4.0826198668168763e+04  4.1157000058622347e+04  4.1489877969044508e+04  4.1820758355770275e+04  4.2145101353776576e+04  4.2458001489808936e+04  4.2754325565640764e+04  4.3028882947309277e+04  4.3276619987078899e+04  4.3492827666561578e+04  4.3673349594188148e+04  4.3814776500255888e+04  4.3914613551827562e+04  4.3971408239923621e+04  4.3984829205209135e+04  4.3955689943840895e+04  4.3885915518080597e+04  4.3778454746591444e+04  4.1647274720957088e+04  4.1727439445992241e+04  4.1790521722125610e+04  4.1833286443348814e+04  4.1852750280285029e+04  4.1846312564026506e+04  4.1811881153939852e+04  4.1747986220168277e+04  4.1653875039736959e+04  4.1529581608182860e+04  4.1375966088891291e+04  4.1194720785775251e+04  4.0988341305626469e+04  4.0760063708989022e+04  4.0513770546800872e+04  4.0253870560434283e+04  3.9985158326112949e+04  3.9712661136007635e+04  3.9441480869136161e+04  3.9176638517345862e+04  3.8922928452050408e+04  3.8684788545121301e+04  3.8466191015716468e+04  3.8270557491860331e+04  3.8100700366302081e+04  3.7958791179805638e+04  3.7846355538749063e+04  3.7764292993593968e+04  3.7712919371691358e+04  3.7692028259402643e+04  3.7700967650164959e+04  3.7738727211233541e+04  3.7804031182429833e+04  3.7895431632903616e+04  3.8011396708211607e+04  3.8150388647203792e+04  3.8310926778333356e+04  3.8491631443521583e+04  3.8691245844206715e+04  3.8908634127205150e+04  3.9142755564833598e+04  3.9392616345324925e+04  3.9657202168979929e+04  3.9935396428093634e+04  4.0225890121822194e+04  4.0527090717632964e+04  4.0837037829693640e+04  4.1153333768666569e+04  4.1473096671674408e+04  4.179294301066641