<?xml version="1.0"?>
<VTKFile type="UnstructuredGrid"  version="0.1"  >
<UnstructuredGrid>
<Piece  NumberOfPoints="4225" NumberOfCells="8192">
<Points>
<DataArray  type="Float64"  NumberOfComponents="3"  format="ascii">0 0 0  0.015625 0 0  0.03125 0 0  0.046875 0 0  0.0625 0 0  0.078125 0 0  0.09375 0 0  0.109375 0 0  0.125 0 0  0.140625 0 0  0.15625 0 0  0.171875 0 0  0.1875 0 0  0.203125 0 0  0.21875 0 0  0.234375 0 0  0.25 0 0  0.265625 0 0  0.28125 0 0  0.296875 0 0  0.3125 0 0  0.328125 0 0  0.34375 0 0  0.359375 0 0  0.375 0 0  0.390625 0 0  0.40625 0 0  0.421875 0 0  0.4375 0 0  0.453125 0 0  0.46875 0 0  0.484375 0 0  0.5 0 0  0.515625 0 0  0.53125 0 0  0.546875 0 0  0.5625 0 0  0.578125 0 0  0.59375 0 0  0.609375 0 0  0.625 0 0  0.640625 0 0  0.65625 0 0  0.671875 0 0  0.6875 0 0  0.703125 0 0  0.71875 0 0  0.734375 0 0  0.75 0 0  0.765625 0 0  0.78125 0 0  0.796875 0 0  0.8125 0 0  0.828125 0 0  0.84375 0 0  0.859375 0 0  0.875 0 0  0.890625 0 0  0.90625 0 0  0.921875 0 0  0.9375 0 0  0.953125 0 0  0.96875 0 0  0.984375 0 0  1 0 0  0 0.015625 0  0.015625 0.015625 0  0.03125 0.015625 0  0.046875 0.015625 0  0.0625 0.015625 0  0.078125 0.015625 0  0.09375 0.015625 0  0.109375 0.015625 0  0.125 0.015625 0  0.140625 0.015625 0  0.15625 0.015625 0  0.171875 0.015625 0  0.1875 0.015625 0  0.203125 0.015625 0  0.21875 0.015625 0  0.234375 0.015625 0  0.25 0.015625 0  0.265625 0.015625 0  0.28125 0.015625 0  0.296875 0.015625 0  0.3125 0.015625 0  0.328125 0.015625 0  0.34375 0.015625 0  0.359375 0.015625 0  0.375 0.015625 0  0.390625 0.015625 0  0.40625 0.015625 0  0.421875 0.015625 0  0.4375 0.015625 0  0.453125 0.015625 0  0.46875 0.015625 0  0.484375 0.015625 0  0.5 0.015625 0  0.515625 0.015625 0  0.53125 0.015625 0  0.546875 0.015625 0  0.5625 0.015625 0  0.578125 0.015625 0  0.59375 0.015625 0  0.609375 0.015625 0  0.625 0.015625 0  0.640625 0.015625 0  0.65625 0.015625 0  0.671875 0.015625 0  0.6875 0.015625 0  0.703125 0.015625 0  0.71875 0.015625 0  0.734375 0.015625 0  0.75 0.015625 0  0.765625 0.015625 0  0.78125 0.015625 0  0.796875 0.015625 0  0.8125 0.015625 0  0.828125 0.015625 0  0.84375 0.015625 0  0.859375 0.015625 0  0.875 0.015625 0  0.890625 0.015625 0  0.90625 0.015625 0  0.921875 0.015625 0  0.9375 0.015625 0  0.953125 0.015625 0  0.96875 0.015625 0  0.984375 0.015625 0  1 0.015625 0  0 0.03125 0  0.015625 0.03125 0  0.03125 0.03125 0  0.046875 0.03125 0  0.0625 0.03125 0  0.078125 0.03125 0  0.09375 0.03125 0  0.109375 0.03125 0  0.125 0.03125 0  0.140625 0.03125 0  0.15625 0.03125 0  0.171875 0.03125 0  0.1875 0.03125 0  0.203125 0.03125 0  0.21875 0.03125 0  0.234375 0.03125 0  0.25 0.03125 0  0.265625 0.03125 0  0.28125 0.03125 0  0.296875 0.03125 0  0.3125 0.03125 0  0.328125 0.03125 0  0.34375 0.03125 0  0.359375 0.03125 0  0.375 0.03125 0  0.390625 0.03125 0  0.40625 0.03125 0  0.421875 0.03125 0  0.4375 0.03125 0  0.453125 0.03125 0  0.46875 0.03125 0  0.484375 0.03125 0  0.5 0.03125 0  0.515625 0.03125 0  0.53125 0.03125 0  0.546875 0.03125 0  0.5625 0.03125 0  0.578125 0.03125 0  0.59375 0.03125 0  0.609375 0.03125 0  0.625 0.03125 0  0.640625 0.03125 0  0.65625 0.03125 0  0.671875 0.03125 0  0.6875 0.03125 0  0.703125 0.03125 0  0.71875 0.03125 0  0.734375 0.03125 0  0.75 0.03125 0  0.765625 0.03125 0  0.78125 0.03125 0  0.796875 0.03125 0  0.8125 0.03125 0  0.828125 0.03125 0  0.84375 0.03125 0  0.859375 0.03125 0  0.875 0.03125 0  0.890625 0.03125 0  0.90625 0.03125 0  0.921875 0.03125 0  0.9375 0.03125 0  0.953125 0.03125 0  0.96875 0.03125 0  0.984375 0.03125 0  1 0.03125 0  0 0.046875 0  0.015625 0.046875 0  0.03125 0.046875 0  0.046875 0.046875 0  0.0625 0.046875 0  0.078125 0.046875 0  0.09375 0.046875 0  0.109375 0.046875 0  0.125 0.046875 0  0.140625 0.046875 0  0.15625 0.046875 0  0.171875 0.046875 0  0.1875 0.046875 0  0.203125 0.046875 0  0.21875 0.046875 0  0.234375 0.046875 0  0.25 0.046875 0  0.265625 0.046875 0  0.28125 0.046875 0  0.296875 0.046875 0  0.3125 0.046875 0  0.328125 0.046875 0  0.34375 0.046875 0  0.359375 0.046875 0  0.375 0.046875 0  0.390625 0.046875 0  0.40625 0.046875 0  0.421875 0.046875 0  0.4375 0.046875 0  0.453125 0.046875 0  0.46875 0.046875 0  0.484375 0.046875 0  0.5 0.046875 0  0.515625 0.046875 0  0.53125 0.046875 0  0.546875 0.046875 0  0.5625 0.046875 0  0.578125 0.046875 0  0.59375 0.046875 0  0.609375 0.046875 0  0.625 0.046875 0  0.640625 0.046875 0  0.65625 0.046875 0  0.671875 0.046875 0  0.6875 0.046875 0  0.703125 0.046875 0  0.71875 0.046875 0  0.734375 0.046875 0  0.75 0.046875 0  0.765625 0.046875 0  0.78125 0.046875 0  0.796875 0.046875 0  0.8125 0.046875 0  0.828125 0.046875 0  0.84375 0.046875 0  0.859375 0.046875 0  0.875 0.046875 0  0.890625 0.046875 0  0.90625 0.046875 0  0.921875 0.046875 0  0.9375 0.046875 0  0.953125 0.046875 0  0.96875 0.046875 0  0.984375 0.046875 0  1 0.046875 0  0 0.0625 0  0.015625 0.0625 0  0.03125 0.0625 0  0.046875 0.0625 0  0.0625 0.0625 0  0.078125 0.0625 0  0.09375 0.0625 0  0.109375 0.0625 0  0.125 0.0625 0  0.140625 0.0625 0  0.15625 0.0625 0  0.171875 0.0625 0  0.1875 0.0625 0  0.203125 0.0625 0  0.21875 0.0625 0  0.234375 0.0625 0  0.25 0.0625 0  0.265625 0.0625 0  0.28125 0.0625 0  0.296875 0.0625 0  0.3125 0.0625 0  0.328125 0.0625 0  0.34375 0.0625 0  0.359375 0.0625 0  0.375 0.0625 0  0.390625 0.0625 0  0.40625 0.0625 0  0.421875 0.0625 0  0.4375 0.0625 0  0.453125 0.0625 0  0.46875 0.0625 0  0.484375 0.0625 0  0.5 0.0625 0  0.515625 0.0625 0  0.53125 0.0625 0  0.546875 0.0625 0  0.5625 0.0625 0  0.578125 0.0625 0  0.59375 0.0625 0  0.609375 0.0625 0  0.625 0.0625 0  0.640625 0.0625 0  0.65625 0.0625 0  0.671875 0.0625 0  0.6875 0.0625 0  0.703125 0.0625 0  0.71875 0.0625 0  0.734375 0.0625 0  0.75 0.0625 0  0.765625 0.0625 0  0.78125 0.0625 0  0.796875 0.0625 0  0.8125 0.0625 0  0.828125 0.0625 0  0.84375 0.0625 0  0.859375 0.0625 0  0.875 0.0625 0  0.890625 0.0625 0  0.90625 0.0625 0  0.921875 0.0625 0  0.9375 0.0625 0  0.953125 0.0625 0  0.96875 0.0625 0  0.984375 0.0625 0  1 0.0625 0  0 0.078125 0  0.015625 0.078125 0  0.03125 0.078125 0  0.046875 0.078125 0  0.0625 0.078125 0  0.078125 0.078125 0  0.09375 0.078125 0  0.109375 0.078125 0  0.125 0.078125 0  0.140625 0.078125 0  0.15625 0.078125 0  0.171875 0.078125 0  0.1875 0.078125 0  0.203125 0.078125 0  0.21875 0.078125 0  0.234375 0.078125 0  0.25 0.078125 0  0.265625 0.078125 0  0.28125 0.078125 0  0.296875 0.078125 0  0.3125 0.078125 0  0.328125 0.078125 0  0.34375 0.078125 0  0.359375 0.078125 0  0.375 0.078125 0  0.390625 0.078125 0  0.40625 0.078125 0  0.421875 0.078125 0  0.4375 0.078125 0  0.453125 0.078125 0  0.46875 0.078125 0  0.484375 0.078125 0  0.5 0.078125 0  0.515625 0.078125 0  0.53125 0.078125 0  0.546875 0.078125 0  0.5625 0.078125 0  0.578125 0.078125 0  0.59375 0.078125 0  0.609375 0.078125 0  0.625 0.078125 0  0.640625 0.078125 0  0.65625 0.078125 0  0.671875 0.078125 0  0.6875 0.078125 0  0.703125 0.078125 0  0.71875 0.078125 0  0.734375 0.078125 0  0.75 0.078125 0  0.765625 0.078125 0  0.78125 0.078125 0  0.796875 0.078125 0  0.8125 0.078125 0  0.828125 0.078125 0  0.84375 0.078125 0  0.859375 0.078125 0  0.875 0.078125 0  0.890625 0.078125 0  0.90625 0.078125 0  0.921875 0.078125 0  0.9375 0.078125 0  0.953125 0.078125 0  0.96875 0.078125 0  0.984375 0.078125 0  1 0.078125 0  0 0.09375 0  0.015625 0.09375 0  0.03125 0.09375 0  0.046875 0.09375 0  0.0625 0.09375 0  0.078125 0.09375 0  0.09375 0.09375 0  0.109375 0.09375 0  0.125 0.09375 0  0.140625 0.09375 0  0.15625 0.09375 0  0.171875 0.09375 0  0.1875 0.09375 0  0.203125 0.09375 0  0.21875 0.09375 0  0.234375 0.09375 0  0.25 0.09375 0  0.265625 0.09375 0  0.28125 0.09375 0  0.296875 0.09375 0  0.3125 0.09375 0  0.328125 0.09375 0  0.34375 0.09375 0  0.359375 0.09375 0  0.375 0.09375 0  0.390625 0.09375 0  0.40625 0.09375 0  0.421875 0.09375 0  0.4375 0.09375 0  0.453125 0.09375 0  0.46875 0.09375 0  0.484375 0.09375 0  0.5 0.09375 0  0.515625 0.09375 0  0.53125 0.09375 0  0.546875 0.09375 0  0.5625 0.09375 0  0.578125 0.09375 0  0.59375 0.09375 0  0.609375 0.09375 0  0.625 0.09375 0  0.640625 0.09375 0  0.65625 0.09375 0  0.671875 0.09375 0  0.6875 0.09375 0  0.703125 0.09375 0  0.71875 0.09375 0  0.734375 0.09375 0  0.75 0.09375 0  0.765625 0.09375 0  0.78125 0.09375 0  0.796875 0.09375 0  0.8125 0.09375 0  0.828125 0.09375 0  0.84375 0.09375 0  0.859375 0.09375 0  0.875 0.09375 0  0.890625 0.09375 0  0.90625 0.09375 0  0.921875 0.09375 0  0.9375 0.09375 0  0.953125 0.09375 0  0.96875 0.09375 0  0.984375 0.09375 0  1 0.09375 0  0 0.109375 0  0.015625 0.109375 0  0.03125 0.109375 0  0.046875 0.109375 0  0.0625 0.109375 0  0.078125 0.109375 0  0.09375 0.109375 0  0.109375 0.109375 0  0.125 0.109375 0  0.140625 0.109375 0  0.15625 0.109375 0  0.171875 0.109375 0  0.1875 0.109375 0  0.203125 0.109375 0  0.21875 0.109375 0  0.234375 0.109375 0  0.25 0.109375 0  0.265625 0.109375 0  0.28125 0.109375 0  0.296875 0.109375 0  0.3125 0.109375 0  0.328125 0.109375 0  0.34375 0.109375 0  0.359375 0.109375 0  0.375 0.109375 0  0.390625 0.109375 0  0.40625 0.109375 0  0.421875 0.109375 0  0.4375 0.109375 0  0.453125 0.109375 0  0.46875 0.109375 0  0.484375 0.109375 0  0.5 0.109375 0  0.515625 0.109375 0  0.53125 0.109375 0  0.546875 0.109375 0  0.5625 0.109375 0  0.578125 0.109375 0  0.59375 0.109375 0  0.609375 0.109375 0  0.625 0.109375 0  0.640625 0.109375 0  0.65625 0.109375 0  0.671875 0.109375 0  0.6875 0.109375 0  0.703125 0.109375 0  0.71875 0.109375 0  0.734375 0.109375 0  0.75 0.109375 0  0.765625 0.109375 0  0.78125 0.109375 0  0.796875 0.109375 0  0.8125 0.109375 0  0.828125 0.109375 0  0.84375 0.109375 0  0.859375 0.109375 0  0.875 0.109375 0  0.890625 0.109375 0  0.90625 0.109375 0  0.921875 0.109375 0  0.9375 0.109375 0  0.953125 0.109375 0  0.96875 0.109375 0  0.984375 0.109375 0  1 0.109375 0  0 0.125 0  0.015625 0.125 0  0.03125 0.125 0  0.046875 0.125 0  0.0625 0.125 0  0.078125 0.125 0  0.09375 0.125 0  0.109375 0.125 0  0.125 0.12
[...]
<PointData  Scalars="gamma"> 
<DataArray  type="Float64"  Name="gamma"  format="ascii">4.1505013951213587e+04  4.1378121457852765e+04  4.1231108974732997e+04  4.1072385330934609e+04  4.0911941247130067e+04  4.0760975303086554e+04  4.0631432976345655e+04  4.0535484264641840e+04  4.0484967350505547e+04  4.0490824779137918e+04  4.0562555514387350e+04  4.0707702236883328e+04  4.0931389688691772e+04  4.1235927860541706e+04  4.1620493947776115e+04  4.2080909141932214e+04  4.2609529595020664e+04  4.3195273791509986e+04  4.3823809259866212e+04  4.4477918305891726e+04  4.5138054048121543e+04  4.5783084220306009e+04  4.6391201913725235e+04  4.6940961807795589e+04  4.7412380565213592e+04  4.7788024444383766e+04  4.8053999029392107e+04  4.8200757546093031e+04  4.8223656255620896e+04  4.8123206860147962e+04  4.7905004031788907e+04  4.7579337203117975e+04  4.7160525274636115e+04  4.6666036862233719e+04  4.6115474133219584e+04  4.5529503701861264e+04  4.4928813704621789e+04  4.4333163789917133e+04  4.3760577124431809e+04  4.3226703857603534e+04  4.2744366822824813e+04  4.2323284911072617e+04  4.1969958851478870e+04  4.1687698332229011e+04  4.1476767839734915e+04  4.1334630013458132e+04  4.1256268181375905e+04  4.1234572621364634e+04  4.1260776916165552e+04  4.1324930992861846e+04  4.1416396091695766e+04  4.1524344520219463e+04  4.1638244474573628e+04  4.1748308417403925e+04  4.1845883338908592e+04  4.1923763228972231e+04  4.1976408360974492e+04  4.2000062190419143e+04  4.1992764091277044e+04  4.1954263855312754e+04  4.1885850893263225e+04  4.1790116570774378e+04  4.1670671529437364e+04  4.1531840966995318e+04  4.1378359798378951e+04  4.1838332185255109e+04  4.1693032796715139e+04  4.1522570156438254e+04  4.1336156812420617e+04  4.1144833033663410e+04  4.0961053361714570e+04  4.0798175782708895e+04  4.0669883361001535e+04  4.0589570048138579e+04  4.0569720604701470e+04  4.0621310155710780e+04  4.0753243379301122e+04  4.0971848404437937e+04  4.1280437618725548e+04  4.1678947594278674e+04  4.2163673194145704e+04  4.2727115655996917e+04  4.3357969297234828e+04  4.4041274208973264e+04  4.4758760673516241e+04  4.5489403371321496e+04  4.6210189120474693e+04  4.6897081704707467e+04  4.7526143568666164e+04  4.8074750286885901e+04  4.8522813879068315e+04  4.8853919216696253e+04  4.9056276897542375e+04  4.9123407298231723e+04  4.9054493219094926e+04  4.8854369768511722e+04  4.8533155534651509e+04  4.8105563590087993e+04  4.7589959636861553e+04  4.7007253909426290e+04  4.6379721328608030e+04  4.5729840835525181e+04  4.5079231636669334e+04  4.4447744373710055e+04  4.3852742707409976e+04  4.3308589046219837e+04  4.2826329971682339e+04  4.2413563993622462e+04  4.2074467050370236e+04  4.1809949010926415e+04  4.1617915942217383e+04  4.1493616341407018e+04  4.1430053230727557e+04  4.1418446686241492e+04  4.1448732321005475e+04  4.1510080406309360e+04  4.1591418197524683e+04  4.1681935527338443e+04  4.1771551879555314e+04  4.1851322895502206e+04  4.1913766205488486e+04  4.1953090778457983e+04  4.1965320320259219e+04  4.1948308896037815e+04  4.1901654929466938e+04  4.1826527016781547e+04  4.1725420706074576e+04  4.1601868939088061e+04  4.1460130001149642e+04  4.1304875697820964e+04  4.2202937641322991e+04  4.2037842294701019e+04  4.1841892403598868e+04  4.1625126986363772e+04  4.1399680564792456e+04  4.1179327012897404e+04  4.0978914715944535e+04  4.0813727937784271e+04  4.0698811094484168e+04  4.0648289923702003e+04  4.0674717544872008e+04  4.0788466019342733e+04  4.0997177370124955e+04  4.1305283967703843e+04  4.1713607868692190e+04  4.2219052212238043e+04  4.2814404104108689e+04  4.3488275516936847e+04  4.4225213930747035e+04  4.5006014952457277e+04  4.5808262748969253e+04  4.6607109732298741e+04  4.7376285098444430e+04  4.8089294879180583e+04  4.8720748000754626e+04  4.9247718255815947e+04  4.9651035880205964e+04  4.9916398359033090e+04  5.0035200050641964e+04  5.0005003700444700e+04  4.9829611003699720e+04  4.9518729252936064e+04  4.9087270963397292e+04  4.8554357506002350e+04  4.7942121644799125e+04  4.7274414857059346e+04  4.6575523066813184e+04  4.5868980751199837e+04  4.5176551694941772e+04  4.4517419190691326e+04  4.3907603376160594e+04  4.3359602035039301e+04  4.2882235673643547e+04  4.2480668705652577e+04  4.2156575547046326e+04  4.1908421846762802e+04  4.1731835018609359e+04  4.1620042781909084e+04  4.1564362044538742e+04  4.1554722286231394e+04  4.1580207444510088e+04  4.1629598629923043e+04  4.1691897709788012e+04  4.1756809998052544e+04  4.1815163984093939e+04  4.1859247913464416e+04  4.1883047313917297e+04  4.1882373945313964e+04  4.1854884412556850e+04  4.1799994816801634e+04  4.1718705271182254e+04  4.1613353955115294e+04  4.1487324005008988e+04  4.1344727693220826e+04  4.1190091157030001e+04  4.2597764387023781e+04  4.2411614395783326e+04  4.2188274247679539e+04  4.1938626190529816e+04  4.1675937197851199e+04  4.1415356661323160e+04  4.1173293141741451e+04  4.0966710923697778e+04  4.0812388868905393e+04  4.0726180287978321e+04  4.0722304706052171e+04  4.0812692781142723e+04  4.1006396863298469e+04  4.1309074093307354e+04  4.1722548037167748e+04  4.2244458929009917e+04  4.2868020587265455e+04  4.3581911683655060e+04  4.4370337146086298e+04  4.5213298689884818e+04  4.6087108921785133e+04  4.6965169519082687e+04  4.7819010860607938e+04  4.8619560486507122e+04  4.9338575115176514e+04  4.9950141125001050e+04  5.0432127106560365e+04  5.0767464018324717e+04  5.0945136298363817e+04  5.0960790936568694e+04  5.0816908108576310e+04  5.0522521297269443e+04  5.0092520326445847e+04  4.9546610769081562e+04  4.8908032290867544e+04  4.8202153276179066e+04  4.7455058766491296e+04  4.6692235036123348e+04  4.5937430698641307e+04  4.5211745800267381e+04  4.4532971705283213e+04  4.3915179703062779e+04  4.3368537771827985e+04  4.2899323819539786e+04  4.2510099510227337e+04  4.2200009910491717e+04  4.1965178527658303e+04  4.1799172693364439e+04  4.1693518905620287e+04  4.1638250583019348e+04  4.1622471384656557e+04  4.1634916194514866e+04  4.1664489957866957e+04  4.1700762924038005e+04  4.1734400569075071e+04  4.1757508301498325e+04  4.1763875269418539e+04  4.1749107932088191e+04  4.1710651819371982e+04  4.1647708073827278e+04  4.1561058872984395e+04  4.1452821723363479e+04  4.1326156262939156e+04  4.1184948349315266e+04  4.1033494972277200e+04  4.3020989417881676e+04  4.2812707445607601e+04  4.2560275457789008e+04  4.2275428727558196e+04  4.1972596955176348e+04  4.1668352285065172e+04  4.1380723100347692e+04  4.1128421017921675e+04  4.0930030255042075e+04  4.0803203580156041e+04  4.0763899099167444e+04  4.0825679907224279e+04  4.0999087325467946e+04  4.1291090923043441e+04  4.1704616734852214e+04  4.2238159558030784e+04  4.2885494885403110e+04  4.3635518375841835e+04  4.4472252165914004e+04  4.5375063784643215e+04  4.6319141360835507e+04  4.7276255928382263e+04  4.8215817692943543e+04  4.9106200305534250e+04  4.9916269993043228e+04  5.0617020961717790e+04  5.1183191451101047e+04  5.1594721922763303e+04  5.1837921700107188e+04  5.1906233469743049e+04  5.1800523672633688e+04  5.1528875410318127e+04  5.1105911784937321e+04  5.0551723971829408e+04  4.9890513290158975e+04  4.9149075846465261e+04  4.8355260615714295e+04  4.7536518619000606e+04  4.6718636001611972e+04  4.5924712509967932e+04  4.5174414548852154e+04  4.4483503332760331e+04  4.3863616801463279e+04  4.3322270334076762e+04  4.2863035560811964e+04  4.2485857146655362e+04  4.2187472007281853e+04  4.1961901600541838e+04  4.1800993683403489e+04  4.1694993906009804e+04  4.1633129336890735e+04  4.1604185759817788e+04  4.1597059214219778e+04  4.1601260916150917e+04  4.1607354517662432e+04  4.1607306459917767e+04  4.1594734286554209e+04  4.1565044002805334e+04  4.1515455211154083e+04  4.1444920835669509e+04  4.1353955686522168e+04  4.1244393965804178e+04  4.1119099426697961e+04  4.0981653007168097e+04  4.0836041488774463e+04  4.3469997353426297e+04  4.3238741249047074e+04  4.2955788996246542e+04  4.2633730613614389e+04  4.2288179257658870e+04  4.1937166125613498e+04  4.1600386740915943e+04  4.1298353563366501e+04  4.1051511690333369e+04  4.0879368183567247e+04  4.0799673228470638e+04  4.0827676139545430e+04  4.0975464949585003e+04  4.1251388454746506e+04  4.1659556567158856e+04  4.2199419478288997e+04  4.2865437444228985e+04  4.3646868213138638e+04  4.4527714158437237e+04  4.5486881392102499e+04  4.6498604164464530e+04  4.7533176686077662e+04  4.8558010320065390e+04  4.9538998829156495e+04  5.0442132701582537e+04  5.1235262284324155e+04  5.1889876120511384e+04  5.2382742394108172e+04  5.2697262356381012e+04  5.2824406328136080e+04  5.2763142886560410e+04  5.2520324382809609e+04  5.2110049026756256e+04  5.1552572816034044e+04  5.0872885984527536e+04  5.0099093176289207e+04  4.9260742158410787e+04  4.8387233790546059e+04  4.7506420114103465e+04  4.6643463447650574e+04  4.5819993363761037e+04  4.5053565749159221e+04  4.4357402623746013e+04  4.3740374857709510e+04  4.3207182309608535e+04  4.2758685645531397e+04  4.2392348748833814e+04  4.2102757536097270e+04  4.1882187850289403e+04  4.1721200324745572e+04  4.1609243006938203e+04  4.1535243250207554e+04  4.1488169719858168e+04  4.1457544456028656e+04  4.1433884942090997e+04  4.1409057919041865e+04  4.1376530663278478e+04  4.1331511461103102e+04  4.1270978435398545e+04  4.1193603752478637e+04  4.1099587502269853e+04  4.0990421263765253e+04  4.0868604891687261e+04  4.0737341122150363e+04  4.0600231310147617e+04  4.3941368562275245e+04  4.3686586550709748e+04  4.3372032945214683e+04  4.3011144902402091e+04  4.2620728393781312e+04  4.2220296826121354e+04  4.1831245465534979e+04  4.1475924940752455e+04  4.1176679111389407e+04  4.0954905025676155e+04  4.0830177781042563e+04  4.0819464592133154e+04  4.0936434714590745e+04  4.1190859239153397e+04  4.1588090150298784e+04  4.2128612609568801e+04  4.2807677245404877e+04  4.3615037365725191e+04  4.4534834943826027e+04  4.5545693633887109e+04  4.6621081803488167e+04  4.7729999786658176e+04  4.8838021774563182e+04  4.9908685547092326e+04  5.0905177362142138e+04  5.1792212073426119e+04  5.2537968500318559e+04  5.3115915281926144e+04  5.3506358701240541e+04  5.3697563438621670e+04  5.3686337887135574e+04  5.3478031652625177e+04  5.3085955582491886e+04  5.2530294533463566e+04  5.1836631365684865e+04  5.1034231039940089e+04  5.0154243328726639e+04  4.9227972325946917e+04  4.8285334599277412e+04  4.7353591485762328e+04  4.6456401403129254e+04  4.5613201244855518e+04  4.4838896445112710e+04  4.4143819512553673e+04  4.3533906977376966e+04  4.3011043288939669e+04  4.2573524695082429e+04  4.2216603647876262e+04  4.1933082228812564e+04  4.1713929616893052e+04  4.1548902815681620e+04  4.1427151700089154e+04  4.1337789641488052e+04  4.1270410624906042e+04  4.1215534049350892e+04  4.1164960221179768e+04  4.1112023373018521e+04  4.1051734788679772e+04  4.0980815718572157e+04  4.0897627327405222e+04  4.0802011907345346e+04  4.0695065099859014e+04  4.0578862259744164e+04  4.0456163096407050e+04  4.0330117445597854e+04  4.4430894420804325e+04  4.4152379769240521e+04  4.3805565245065955e+04  4.3404716843268150e+04  4.2967829338970725e+04  4.2515905957146220e+04  4.2072057040650943e+04  4.1660490069356980e+04  4.1305465720496555e+04  4.1030285755675897e+04  4.0856360854411665e+04  4.0802384388328035e+04  4.0883616710930000e+04  4.1111268727877010e+04  4.1491966914279394e+04  4.2027286124243823e+04  4.2713350688803584e+04  4.3540525325885836e+04  4.4493240360241733e+04  4.5550014695905542e+04  4.6683748939123550e+04  4.7862355326082550e+04  4.9049768412360885e+04  5.0207341919810126e+04  5.1295587417346200e+04  5.2276157406925355e+04  5.3113928372119190e+04  5.3779007692457548e+04  5.4248479073197857e+04  5.4507717487511400e+04  5.4551145138224805e+04  5.4382358760899944e+04  5.4013626600815463e+04  5.3464820074523479e+04  5.2761900577131724e+04  5.1935118676304111e+04  5.1017097257536079e+04  5.0040962305350033e+04  4.9038658758615180e+04  4.8039550572502943e+04  4.7069361065443190e+04  4.6149468674486678e+04  4.5296539615683534e+04  4.4522455611699093e+04  4.3834482421780885e+04  4.3235622046982789e+04  4.2725095579376371e+04  4.2298911633954194e+04  4.1950484287483538e+04  4.1671272314559137e+04  4.1451417090410752e+04  4.1280359624745906e+04  4.1147418380844894e+04  4.1042309864929732e+04  4.0955594601371311e+04  4.0879032992908229e+04  4.0805839224345320e+04  4.0730826798929062e+04  4.0650446005801350e+04  4.0562720770782777e+04  4.0467098976919508e+04  4.0364235577449661e+04  4.0255731041725645e+04  4.0143848606178057e+04  4.0031232539979566e+04  4.4933622742112660e+04  4.4631565675784055e+04  4.4252323477983307e+04  4.3810960568623508e+04  4.3326641037156158e+04  4.2821847451973626e+04  4.2321400636500061e+04  4.1851362466665676e+04  4.1437906579184237e+04  4.1106231666967884e+04  4.0879571506805340e+04  4.0778329882401646e+04  4.0819343054245131e+04  4.1015253069579987e+04  4.1373966260967507e+04  4.1898174749437479e+04  4.2584934005433715e+04  4.3425313316753338e+04  4.4404163058783379e+04  4.5500066366215819e+04  4.6685556404264076e+04  4.7927678325365428e+04  4.9188954079837094e+04  5.0428769019101295e+04  5.1605146215401393e+04  5.2676815737620760e+04  5.3605432093208809e+04  5.4357754141633777e+04  5.4907586356340267e+04  5.5237292697438083e+04  5.5338733842181318e+04  5.5213539413894898e+04  5.4872699638593018e+04  5.4335534139989126e+04  5.3628158315810928e+04  5.2781611291710055e+04  5.1829829034665781e+04  5.0807641425191461e+04  4.9748946553052192e+04  4.8685175723488297e+04  4.7644116484173392e+04  4.6649115976648012e+04  4.5718649059838637e+04  4.4866208553536846e+04  4.4100459661794332e+04  4.3425596023056460e+04  4.2841838277959694e+04  4.2346024291769092e+04  4.1932250095683492e+04  4.1592529797020186e+04  4.1317449721794976e+04  4.1096796485942315e+04  4.0920140977572359e+04  4.0777361337030779e+04  4.0659089079559621e+04  4.0557064493535792e+04  4.0464390945463740e+04  4.0375682805044882e+04  4.0287107962851514e+04  4.0196332597600129e+04  4.0102382063756224e+04  4.0005436683016589e+04  3.9906584239823387e+04  3.9807551836416627e+04  3.9710438534008805e+04  4.5443935434594947e+04  4.5118969794269928e+04  4.4707691097154617e+04  4.4225918268616486e+04  4.3693947634352269e+04  4.3135709990949872e+04  4.2577709442435626e+04  4.2047836214129391e+04  4.1574149182571520e+04  4.1183712427179475e+04  4.0901546674622608e+04  4.0749726509951572e+04  4.0746624370480225e+04  4.0906279117980463e+04  4.1237855355366148e+04  4.1745162080381502e+04  4.2426215301994016e+04  4.3272855595734101e+04  4.4270462599669634e+04  4.5397836992580218e+04  4.6627339019357947e+04  4.7925374636268549e+04  4.9253301860962179e+04  5.0568790731178044e+04  5.1827614623771238e+04  5.2985786888758696e+04  5.4001895879872733e+04  5.4839445137811097e+04  5.5468983384914747e+04  5.5869816676704009e+04  5.6031132662066128e+04  5.5952429050084524e+04  5.5643215281400669e+04  5.5122035878640498e+04  5.4414933862482561e+04  5.3553523143288658e+04  5.2572864082291300e+04  5.1509335313320393e+04  5.0398670711897976e+04  4.9274289700829278e+04  4.8166000189853010e+04  4.7099104611800314e+04  4.6093897469021213e+04  4.5165511821470463e+04  4.4324053780740454e+04  4.3574957450090216e+04  4.2919495293617867e+04  4.2355387239227362e+04  4.1877462556693077e+04  4.1478338996707847e+04  4.1149092125124967e+04  4.0879893602248907e+04  4.0660600608252724e+04  4.0481280566960348e+04  4.0332656867307363e+04  4.0206463413737183e+04  4.0095699186238031e+04  3.9994778711333340e+04  3.9899580122694962e+04  3.9807398663725697e+04  3.9716819236707452e+04  3.9627526160205860e+04  3.9540071093464961e+04  3.9455620863008255e+04  3.9375705742452177e+04  4.5955659157517439e+04  4.5608901114678192e+04  4.5166590446012517e+04  4.4645241908386910e+04  4.4066227425864825e+04  4.3454871841356726e+04  4.2839310191233184e+04  4.2249209106180788e+04  4.1714459375316350e+04  4.1263934202000579e+04  4.0924381388317503e+04  4.0719483613145414e+04  4.0669086606597455e+04  4.0788567706137073e+04  4.1088302677448381e+04  4.1573189749549092e+04  4.2242206318623314e+04  4.3088002384887674e+04  4.4096569574314293e+04  4.5247057894339778e+04  4.6511835938940603e+04  4.7856896733739290e+04  4.9242695918835278e+04  5.0625470548417150e+04  5.1959029241664146e+04  5.3196936147566179e+04  5.4294943869809380e+04  5.5213476827091836e+04  5.5919937482730129e+04  5.6390610282820795e+04  5.6611973079378746e+04  5.6581288349949362e+04  5.6306426742403040e+04  5.5804960544518675e+04  5.5102641444537985e+04  5.4231434421987782e+04  5.3227310850469497e+04  5.2128006939995750e+04  5.0970931352480839e+04  4.9791364790262662e+04  4.8621043246905370e+04  4.7487164290428576e+04  4.6411809675872370e+04  4.5411742721028284e+04  4.4498517306381902e+04  4.3678826521776646e+04  4.2955020396898632e+04  4.2325730340583781e+04  4.1786549297068494e+04  4.1330728225669147e+04  4.0949859344974138e+04  4.0634523778667492e+04  4.0374885884846437e+04  4.0161219392174062e+04  3.9984352546929855e+04  3.9836021786112920e+04  3.9709126672912804e+04  3.9597883194392001e+04  3.9497877807994715e+04  3.9406030269753501e+04  3.9320478549438951e+04  3.9240403324526022e+04  3.9165812114734596e+04  3.9097303817237647e+04  3.9035833271188181e+04  4.6462208162589734e+04  4.6095284277172206e+04  4.5623601659707485e+04  4.5064296501046956e+04  4.4439738468607560e+04  4.3776567097226594e+04  4.3104468623238783e+04  4.2454806228448520e+04  4.1859222223650519e+04  4.1348317317967929e+04  4.0950483111729009e+04  4.0690925856795642e+04  4.0590880619133444e+04  4.0666983427624291e+04  4.0930751197974940e+04  4.1388118636152940e+04  4.2038997959257780e+04  4.2876857776073717e+04  4.3888355683355061e+04  4.5053096951874577e+04  4.6343620225143488e+04  4.7725722275700682e+04  4.9159221805871231e+04  5.0599225288343674e+04  5.1997899197991843e+04  5.3306681021576231e+04  5.4478788293665551e+04  5.5471824226604724e+04  5.6250242495392573e+04  5.6787430481288655e+04  5.7067201870229961e+04  5.7084551573273995e+04  5.6845608585403577e+04  5.6366812289175701e+04  5.5673420781390938e+04  5.4797523968319423e+04  5.3775771426659478e+04  5.2647032538804910e+04  5.1450186527951540e+04  5.0222199230739498e+04  4.8996590675944884e+04  4.7802342190906646e+04  4.6663241961321619e+04  4.5597629359724604e+04  4.4618473563110769e+04  4.3733710800961395e+04  4.2946764673205478e+04  4.2257181828249406e+04  4.1661327136036562e+04  4.1153095098383739e+04  4.0724605362539340e+04  4.0366858728485684e+04  4.0070335863615648e+04  3.9825524680337025e+04  3.9623364970515482e+04  3.9455601409148003e+04  3.9315039158225190e+04  3.9195700327679479e+04  3.9092884358939707e+04  3.9003140522069421e+04  3.8924165513078609e+04  3.8854642956157273e+04  3.8794043960915900e+04  3.8742408508868575e+04  3.8700126369813333e+04  4.6956756712102448e+04  4.6571818765086136e+04  4.6073105145333946e+04  4.5478282812797632e+04  4.4810618954316218e+04  4.4097961698537219e+04  4.3371439646452098e+04  4.2664003219551458e+04  4.2008937741447597e+04  4.1438464164307428e+04  4.0982511863467225e+04  4.0667705986055204e+04  4.0516568470222286e+04  4.0546896045650028e+04  4.0771257401505813e+04  4.1196549224496455e+04  4.1823567223760037e+04  4.2646580238095441e+04  4.3652936718927340e+04  4.4822774832208452e+04  4.6128940711048235e+04  4.7537235151371257e+04  4.9007100703248412e+04  5.0492826120612081e+04  5.1945286185543140e+04  5.3314160155793594e+04  5.4550493945866787e+04  5.5609404057416919e+04  5.6452678554611419e+04  5.7051021318067214e+04  5.7385713544724771e+04  5.7449527274983186e+04  5.7246809874790153e+04  5.6792752189793064e+04  5.6111941704127683e+04  5.5236372401638379e+04  5.4203126109198623e+04  5.3051952210829782e+04  5.1822955534496803e+04  5.0554562216547747e+04  4.9281879518526184e+04  4.8035507747212978e+04  4.6840809339791638e+04  4.5717598088458479e+04  4.4680183568083354e+04  4.3737692277526556e+04  4.2894585655806855e+04  4.2151302463743574e+04  4.1504965132450176e+04  4.095010311838897