<?xml version="1.0"?>
<VTKFile type="UnstructuredGrid"  version="0.1"  >
<UnstructuredGrid>
<Piece  NumberOfPoints="4225" NumberOfCells="8192">
<Points>
<DataArray  type="Float64"  NumberOfComponents="3"  format="ascii">0 0 0  0.015625 0 0  0.03125 0 0  0.046875 0 0  0.0625 0 0  0.078125 0 0  0.09375 0 0  0.109375 0 0  0.125 0 0  0.140625 0 0  0.15625 0 0  0.171875 0 0  0.1875 0 0  0.203125 0 0  0.21875 0 0  0.234375 0 0  0.25 0 0  0.265625 0 0  0.28125 0 0  0.296875 0 0  0.3125 0 0  0.328125 0 0  0.34375 0 0  0.359375 0 0  0.375 0 0  0.390625 0 0  0.40625 0 0  0.421875 0 0  0.4375 0 0  0.453125 0 0  0.46875 0 0  0.484375 0 0  0.5 0 0  0.515625 0 0  0.53125 0 0  0.546875 0 0  0.5625 0 0  0.578125 0 0  0.59375 0 0  0.609375 0 0  0.625 0 0  0.640625 0 0  0.65625 0 0  0.671875 0 0  0.6875 0 0  0.703125 0 0  0.71875 0 0  0.734375 0 0  0.75 0 0  0.765625 0 0  0.78125 0 0  0.796875 0 0  0.8125 0 0  0.828125 0 0  0.84375 0 0  0.859375 0 0  0.875 0 0  0.890625 0 0  0.90625 0 0  0.921875 0 0  0.9375 0 0  0.953125 0 0  0.96875 0 0  0.984375 0 0  1 0 0  0 0.015625 0  0.015625 0.015625 0  0.03125 0.015625 0  0.046875 0.015625 0  0.0625 0.015625 0  0.078125 0.015625 0  0.09375 0.015625 0  0.109375 0.015625 0  0.125 0.015625 0  0.140625 0.015625 0  0.15625 0.015625 0  0.171875 0.015625 0  0.1875 0.015625 0  0.203125 0.015625 0  0.21875 0.015625 0  0.234375 0.015625 0  0.25 0.015625 0  0.265625 0.015625 0  0.28125 0.015625 0  0.296875 0.015625 0  0.3125 0.015625 0  0.328125 0.015625 0  0.34375 0.015625 0  0.359375 0.015625 0  0.375 0.015625 0  0.390625 0.015625 0  0.40625 0.015625 0  0.421875 0.015625 0  0.4375 0.015625 0  0.453125 0.015625 0  0.46875 0.015625 0  0.484375 0.015625 0  0.5 0.015625 0  0.515625 0.015625 0  0.53125 0.015625 0  0.546875 0.015625 0  0.5625 0.015625 0  0.578125 0.015625 0  0.59375 0.015625 0  0.609375 0.015625 0  0.625 0.015625 0  0.640625 0.015625 0  0.65625 0.015625 0  0.671875 0.015625 0  0.6875 0.015625 0  0.703125 0.015625 0  0.71875 0.015625 0  0.734375 0.015625 0  0.75 0.015625 0  0.765625 0.015625 0  0.78125 0.015625 0  0.796875 0.015625 0  0.8125 0.015625 0  0.828125 0.015625 0  0.84375 0.015625 0  0.859375 0.015625 0  0.875 0.015625 0  0.890625 0.015625 0  0.90625 0.015625 0  0.921875 0.015625 0  0.9375 0.015625 0  0.953125 0.015625 0  0.96875 0.015625 0  0.984375 0.015625 0  1 0.015625 0  0 0.03125 0  0.015625 0.03125 0  0.03125 0.03125 0  0.046875 0.03125 0  0.0625 0.03125 0  0.078125 0.03125 0  0.09375 0.03125 0  0.109375 0.03125 0  0.125 0.03125 0  0.140625 0.03125 0  0.15625 0.03125 0  0.171875 0.03125 0  0.1875 0.03125 0  0.203125 0.03125 0  0.21875 0.03125 0  0.234375 0.03125 0  0.25 0.03125 0  0.265625 0.03125 0  0.28125 0.03125 0  0.296875 0.03125 0  0.3125 0.03125 0  0.328125 0.03125 0  0.34375 0.03125 0  0.359375 0.03125 0  0.375 0.03125 0  0.390625 0.03125 0  0.40625 0.03125 0  0.421875 0.03125 0  0.4375 0.03125 0  0.453125 0.03125 0  0.46875 0.03125 0  0.484375 0.03125 0  0.5 0.03125 0  0.515625 0.03125 0  0.53125 0.03125 0  0.546875 0.03125 0  0.5625 0.03125 0  0.578125 0.03125 0  0.59375 0.03125 0  0.609375 0.03125 0  0.625 0.03125 0  0.640625 0.03125 0  0.65625 0.03125 0  0.671875 0.03125 0  0.6875 0.03125 0  0.703125 0.03125 0  0.71875 0.03125 0  0.734375 0.03125 0  0.75 0.03125 0  0.765625 0.03125 0  0.78125 0.03125 0  0.796875 0.03125 0  0.8125 0.03125 0  0.828125 0.03125 0  0.84375 0.03125 0  0.859375 0.03125 0  0.875 0.03125 0  0.890625 0.03125 0  0.90625 0.03125 0  0.921875 0.03125 0  0.9375 0.03125 0  0.953125 0.03125 0  0.96875 0.03125 0  0.984375 0.03125 0  1 0.03125 0  0 0.046875 0  0.015625 0.046875 0  0.03125 0.046875 0  0.046875 0.046875 0  0.0625 0.046875 0  0.078125 0.046875 0  0.09375 0.046875 0  0.109375 0.046875 0  0.125 0.046875 0  0.140625 0.046875 0  0.15625 0.046875 0  0.171875 0.046875 0  0.1875 0.046875 0  0.203125 0.046875 0  0.21875 0.046875 0  0.234375 0.046875 0  0.25 0.046875 0  0.265625 0.046875 0  0.28125 0.046875 0  0.296875 0.046875 0  0.3125 0.046875 0  0.328125 0.046875 0  0.34375 0.046875 0  0.359375 0.046875 0  0.375 0.046875 0  0.390625 0.046875 0  0.40625 0.046875 0  0.421875 0.046875 0  0.4375 0.046875 0  0.453125 0.046875 0  0.46875 0.046875 0  0.484375 0.046875 0  0.5 0.046875 0  0.515625 0.046875 0  0.53125 0.046875 0  0.546875 0.046875 0  0.5625 0.046875 0  0.578125 0.046875 0  0.59375 0.046875 0  0.609375 0.046875 0  0.625 0.046875 0  0.640625 0.046875 0  0.65625 0.046875 0  0.671875 0.046875 0  0.6875 0.046875 0  0.703125 0.046875 0  0.71875 0.046875 0  0.734375 0.046875 0  0.75 0.046875 0  0.765625 0.046875 0  0.78125 0.046875 0  0.796875 0.046875 0  0.8125 0.046875 0  0.828125 0.046875 0  0.84375 0.046875 0  0.859375 0.046875 0  0.875 0.046875 0  0.890625 0.046875 0  0.90625 0.046875 0  0.921875 0.046875 0  0.9375 0.046875 0  0.953125 0.046875 0  0.96875 0.046875 0  0.984375 0.046875 0  1 0.046875 0  0 0.0625 0  0.015625 0.0625 0  0.03125 0.0625 0  0.046875 0.0625 0  0.0625 0.0625 0  0.078125 0.0625 0  0.09375 0.0625 0  0.109375 0.0625 0  0.125 0.0625 0  0.140625 0.0625 0  0.15625 0.0625 0  0.171875 0.0625 0  0.1875 0.0625 0  0.203125 0.0625 0  0.21875 0.0625 0  0.234375 0.0625 0  0.25 0.0625 0  0.265625 0.0625 0  0.28125 0.0625 0  0.296875 0.0625 0  0.3125 0.0625 0  0.328125 0.0625 0  0.34375 0.0625 0  0.359375 0.0625 0  0.375 0.0625 0  0.390625 0.0625 0  0.40625 0.0625 0  0.421875 0.0625 0  0.4375 0.0625 0  0.453125 0.0625 0  0.46875 0.0625 0  0.484375 0.0625 0  0.5 0.0625 0  0.515625 0.0625 0  0.53125 0.0625 0  0.546875 0.0625 0  0.5625 0.0625 0  0.578125 0.0625 0  0.59375 0.0625 0  0.609375 0.0625 0  0.625 0.0625 0  0.640625 0.0625 0  0.65625 0.0625 0  0.671875 0.0625 0  0.6875 0.0625 0  0.703125 0.0625 0  0.71875 0.0625 0  0.734375 0.0625 0  0.75 0.0625 0  0.765625 0.0625 0  0.78125 0.0625 0  0.796875 0.0625 0  0.8125 0.0625 0  0.828125 0.0625 0  0.84375 0.0625 0  0.859375 0.0625 0  0.875 0.0625 0  0.890625 0.0625 0  0.90625 0.0625 0  0.921875 0.0625 0  0.9375 0.0625 0  0.953125 0.0625 0  0.96875 0.0625 0  0.984375 0.0625 0  1 0.0625 0  0 0.078125 0  0.015625 0.078125 0  0.03125 0.078125 0  0.046875 0.078125 0  0.0625 0.078125 0  0.078125 0.078125 0  0.09375 0.078125 0  0.109375 0.078125 0  0.125 0.078125 0  0.140625 0.078125 0  0.15625 0.078125 0  0.171875 0.078125 0  0.1875 0.078125 0  0.203125 0.078125 0  0.21875 0.078125 0  0.234375 0.078125 0  0.25 0.078125 0  0.265625 0.078125 0  0.28125 0.078125 0  0.296875 0.078125 0  0.3125 0.078125 0  0.328125 0.078125 0  0.34375 0.078125 0  0.359375 0.078125 0  0.375 0.078125 0  0.390625 0.078125 0  0.40625 0.078125 0  0.421875 0.078125 0  0.4375 0.078125 0  0.453125 0.078125 0  0.46875 0.078125 0  0.484375 0.078125 0  0.5 0.078125 0  0.515625 0.078125 0  0.53125 0.078125 0  0.546875 0.078125 0  0.5625 0.078125 0  0.578125 0.078125 0  0.59375 0.078125 0  0.609375 0.078125 0  0.625 0.078125 0  0.640625 0.078125 0  0.65625 0.078125 0  0.671875 0.078125 0  0.6875 0.078125 0  0.703125 0.078125 0  0.71875 0.078125 0  0.734375 0.078125 0  0.75 0.078125 0  0.765625 0.078125 0  0.78125 0.078125 0  0.796875 0.078125 0  0.8125 0.078125 0  0.828125 0.078125 0  0.84375 0.078125 0  0.859375 0.078125 0  0.875 0.078125 0  0.890625 0.078125 0  0.90625 0.078125 0  0.921875 0.078125 0  0.9375 0.078125 0  0.953125 0.078125 0  0.96875 0.078125 0  0.984375 0.078125 0  1 0.078125 0  0 0.09375 0  0.015625 0.09375 0  0.03125 0.09375 0  0.046875 0.09375 0  0.0625 0.09375 0  0.078125 0.09375 0  0.09375 0.09375 0  0.109375 0.09375 0  0.125 0.09375 0  0.140625 0.09375 0  0.15625 0.09375 0  0.171875 0.09375 0  0.1875 0.09375 0  0.203125 0.09375 0  0.21875 0.09375 0  0.234375 0.09375 0  0.25 0.09375 0  0.265625 0.09375 0  0.28125 0.09375 0  0.296875 0.09375 0  0.3125 0.09375 0  0.328125 0.09375 0  0.34375 0.09375 0  0.359375 0.09375 0  0.375 0.09375 0  0.390625 0.09375 0  0.40625 0.09375 0  0.421875 0.09375 0  0.4375 0.09375 0  0.453125 0.09375 0  0.46875 0.09375 0  0.484375 0.09375 0  0.5 0.09375 0  0.515625 0.09375 0  0.53125 0.09375 0  0.546875 0.09375 0  0.5625 0.09375 0  0.578125 0.09375 0  0.59375 0.09375 0  0.609375 0.09375 0  0.625 0.09375 0  0.640625 0.09375 0  0.65625 0.09375 0  0.671875 0.09375 0  0.6875 0.09375 0  0.703125 0.09375 0  0.71875 0.09375 0  0.734375 0.09375 0  0.75 0.09375 0  0.765625 0.09375 0  0.78125 0.09375 0  0.796875 0.09375 0  0.8125 0.09375 0  0.828125 0.09375 0  0.84375 0.09375 0  0.859375 0.09375 0  0.875 0.09375 0  0.890625 0.09375 0  0.90625 0.09375 0  0.921875 0.09375 0  0.9375 0.09375 0  0.953125 0.09375 0  0.96875 0.09375 0  0.984375 0.09375 0  1 0.09375 0  0 0.109375 0  0.015625 0.109375 0  0.03125 0.109375 0  0.046875 0.109375 0  0.0625 0.109375 0  0.078125 0.109375 0  0.09375 0.109375 0  0.109375 0.109375 0  0.125 0.109375 0  0.140625 0.109375 0  0.15625 0.109375 0  0.171875 0.109375 0  0.1875 0.109375 0  0.203125 0.109375 0  0.21875 0.109375 0  0.234375 0.109375 0  0.25 0.109375 0  0.265625 0.109375 0  0.28125 0.109375 0  0.296875 0.109375 0  0.3125 0.109375 0  0.328125 0.109375 0  0.34375 0.109375 0  0.359375 0.109375 0  0.375 0.109375 0  0.390625 0.109375 0  0.40625 0.109375 0  0.421875 0.109375 0  0.4375 0.109375 0  0.453125 0.109375 0  0.46875 0.109375 0  0.484375 0.109375 0  0.5 0.109375 0  0.515625 0.109375 0  0.53125 0.109375 0  0.546875 0.109375 0  0.5625 0.109375 0  0.578125 0.109375 0  0.59375 0.109375 0  0.609375 0.109375 0  0.625 0.109375 0  0.640625 0.109375 0  0.65625 0.109375 0  0.671875 0.109375 0  0.6875 0.109375 0  0.703125 0.109375 0  0.71875 0.109375 0  0.734375 0.109375 0  0.75 0.109375 0  0.765625 0.109375 0  0.78125 0.109375 0  0.796875 0.109375 0  0.8125 0.109375 0  0.828125 0.109375 0  0.84375 0.109375 0  0.859375 0.109375 0  0.875 0.109375 0  0.890625 0.109375 0  0.90625 0.109375 0  0.921875 0.109375 0  0.9375 0.109375 0  0.953125 0.109375 0  0.96875 0.109375 0  0.984375 0.109375 0  1 0.109375 0  0 0.125 0  0.015625 0.125 0  0.03125 0.125 0  0.046875 0.125 0  0.0625 0.125 0  0.078125 0.125 0  0.09375 0.125 0  0.109375 0.125 0  0.125 0.12
[...]
<PointData  Scalars="gamma"> 
<DataArray  type="Float64"  Name="gamma"  format="ascii">3.4096491178369368e+04  3.4158954384547265e+04  3.4267711505165411e+04  3.4414606486385499e+04  3.4588802024726399e+04  3.4777035686972522e+04  3.4964058784053501e+04  3.5133264193898307e+04  3.5267491897422726e+04  3.5349979185184595e+04  3.5365399095334324e+04  3.5300909620064987e+04  3.5147122011550826e+04  3.4898893073388572e+04  3.4555856049130838e+04  3.4122627682932369e+04  3.3608662632216437e+04  3.3027765709201572e+04  3.2397311035829898e+04  3.1737248633926942e+04  3.1068998071453228e+04  3.0414332818619157e+04  2.9794348189431697e+04  2.9228583216740160e+04  2.8734337574896570e+04  2.8326194521679587e+04  2.8015735052953336e+04  2.7811410790182701e+04  2.7718535234337891e+04  2.7739354537048366e+04  2.7873167818137910e+04  2.8116480223457780e+04  2.8463185934393285e+04  2.8904790014084421e+04  2.9430684819225342e+04  3.0028497285494832e+04  3.0684517525783252e+04  3.1384207961747190e+04  3.2112777844076580e+04  3.2855793417090928e+04  3.3599782199741392e+04  3.4332783445795430e+04  3.5044797333115064e+04  3.5728092989255092e+04  3.6377348913056980e+04  3.6989616481231482e+04  3.7564115293263007e+04  3.8101885430805087e+04  3.8605334184986081e+04  3.9077722217985800e+04  3.9522636212494574e+04  3.9943492374708032e+04  4.0343108769338789e+04  4.0723375652943985e+04  4.1085042930478856e+04  4.1427633540039809e+04  4.1749481636785451e+04  4.2047885338010943e+04  4.2319355832436340e+04  4.2559938164727217e+04  4.2765574342973385e+04  4.2932476969721232e+04  4.3057481694299924e+04  4.3138349576581473e+04  4.3173995807398765e+04  3.4548103512677240e+04  3.4636385935187318e+04  3.4766261933232156e+04  3.4928290905039903e+04  3.5110330895790175e+04  3.5297858361867264e+04  3.5474486071997970e+04  3.5622681395493950e+04  3.5724666817360325e+04  3.5763460072592650e+04  3.5723986216313344e+04  3.5594172774204111e+04  3.5365926653077928e+04  3.5035891699699001e+04  3.4605900699655765e+04  3.4083064504445902e+04  3.3479480240307646e+04  3.2811584160431681e+04  3.2099215387817014e+04  3.1364487603613132e+04  3.0630581562819090e+04  2.9920570045726436e+04  2.9256369752803050e+04  2.8657885978015194e+04  2.8142381787950690e+04  2.7724070448868595e+04  2.7413903545387577e+04  2.7219511184972784e+04  2.7145246025498931e+04  2.7192288488724422e+04  2.7358783638050652e+04  2.7639997076894626e+04  2.8028493931512032e+04  2.8514357993338872e+04  2.9085474769080247e+04  2.9727901118023306e+04  3.0426335399521675e+04  3.1164687155975087e+04  3.1926727141239564e+04  3.2696780579779006e+04  3.3460412593499372e+04  3.4205047746466938e+04  3.4920467268713452e+04  3.5599137672239092e+04  3.6236341471058047e+04  3.6830101663828144e+04  3.7380913108622342e+04  3.7891312704100455e+04  3.8365333998869100e+04  3.8807899253041862e+04  3.9224203040745750e+04  3.9619137139254839e+04  3.9996798195320873e+04  4.0360109126419920e+04  4.0710573832041882e+04  4.1048173587632729e+04  4.1371403078650255e+04  4.1677434697007149e+04  4.1962391617804766e+04  4.2221703473322654e+04  4.2450513432301515e+04  4.2644102575975739e+04  4.2798297054347408e+04  4.2909825889525331e+04  4.2976602468299287e+04  3.5132679099282766e+04  3.5250511196709973e+04  3.5404035443391957e+04  3.5582410632636027e+04  3.5772107787565168e+04  3.5957305277561230e+04  3.6120496945827814e+04  3.6243309877601045e+04  3.6307504899476095e+04  3.6296105974903810e+04  3.6194578422058083e+04  3.5991955396491605e+04  3.5681802406357390e+04  3.5262914571901514e+04  3.4739662327611390e+04  3.4121936621400877e+04  3.3424689598633449e+04  3.2667114123750311e+04  3.1871547213607118e+04  3.1062211285994636e+04  3.0263918280276208e+04  2.9500853941150894e+04  2.8795535384232040e+04  2.8168000054117852e+04  2.7635245570159266e+04  2.7210904929227643e+04  2.6905115758336029e+04  2.6724528951414613e+04  2.6672401509911670e+04  2.6748728787372409e+04  2.6950389032898827e+04  2.7271293770260581e+04  2.7702556743997564e+04  2.8232708096449700e+04  2.8847986352228741e+04  2.9532737355713281e+04  3.0269936898626827e+04  3.1041834488356380e+04  3.1830693109999611e+04  3.2619578344793979e+04  3.3393134213978141e+04  3.4138276031497204e+04  3.4844734041448166e+04  3.5505395256388605e+04  3.6116412314837216e+04  3.6677073599729869e+04  3.7189454085463389e+04  3.7657887621829104e+04  3.8088315972479875e+04  3.8487576758268006e+04  3.8862691836065867e+04  3.9220211012351589e+04  3.9565655373044610e+04  3.9903091970130445e+04  4.0234858822701273e+04  4.0561447250480858e+04  4.0881537954517007e+04  4.1192178063069718e+04  4.1489078469209475e+04  4.1767004161909259e+04  4.2020225064479811e+04  4.2242991538017566e+04  4.2429997696578503e+04  4.2576797461322785e+04  4.2680143033357279e+04  3.5848631511741325e+04  3.5999820099855759e+04  3.6179613033684727e+04  3.6375657583314111e+04  3.6572965652998922e+04  3.6754396374813667e+04  3.6901365248328417e+04  3.6994769012241275e+04  3.7016088760475955e+04  3.6948604753279535e+04  3.6778629670477560e+04  3.6496648244344869e+04  3.6098245448337693e+04  3.5584716153230293e+04  3.4963276998891997e+04  3.4246843338224076e+04  3.3453384426680241e+04  3.2604920303216182e+04  3.1726265285633224e+04  3.0843648377619189e+04  2.9983345974695658e+04  2.9170446963793660e+04  2.8427838579088067e+04  2.7775460157361806e+04  2.7229829479437154e+04  2.6803810347984767e+04  2.6506565959139472e+04  2.6343633029632038e+04  2.6317056092684397e+04  2.6425537013136727e+04  2.6664577224218341e+04  2.7026614487154056e+04  2.7501177311491028e+04  2.8075094484182853e+04  2.8732801601560077e+04  2.9456779891376835e+04  3.0228145719545897e+04  3.1027384777125804e+04  3.1835197489149341e+04  3.2633397025101385e+04  3.3405783569605737e+04  3.4138912034504741e+04  3.4822676741869494e+04  3.5450654793089314e+04  3.6020176581857268e+04  3.6532122452794138e+04  3.6990473733162289e+04  3.7401669889136734e+04  3.7773838543983140e+04  3.8115970607905394e+04  3.8437109645387216e+04  3.8745614948383416e+04  3.9048544263774405e+04  3.9351187298489494e+04  3.9656766939583751e+04  3.9966312681511081e+04  4.0278700354864130e+04  4.0590843659801416e+04  4.0898015780866197e+04  4.1194273174297567e+04  4.1472948475084442e+04  4.1727175736839010e+04  4.1950409511494618e+04  4.2136900240857678e+04  4.2282092478857609e+04  3.6690071248642220e+04  3.6878410125363211e+04  3.7087137527849103e+04  3.7302289295339440e+04  3.7507361623825134e+04  3.7683893010721586e+04  3.7812284015865567e+04  3.7872834712812088e+04  3.7846950063454438e+04  3.7718432779605180e+04  3.7474756930848045e+04  3.7108199509190534e+04  3.6616706440349393e+04  3.6004387003184624e+04  3.5281565854616048e+04  3.4464370717760743e+04  3.3573888892076990e+04  3.2634977801070265e+04  3.1674854572796496e+04  3.0721610059155286e+04  2.9802790458033774e+04  2.8944166101994164e+04  2.8168767528570635e+04  2.7496221980247748e+04  2.6942378129344426e+04  2.6519170974120578e+04  2.6234657642523274e+04  2.6093150002501308e+04  2.6095380067458336e+04  2.6238655398838149e+04  2.6516988917425693e+04  2.6921215227313984e+04  2.7439128554523933e+04  2.8055691423158965e+04  2.8753365353176683e+04  2.9512604175967528e+04  3.0312528308534103e+04  3.1131768115297753e+04  3.1949431812680832e+04  3.2746124625566226e+04  3.3504927021501251e+04  3.4212234945057033e+04  3.4858375372070768e+04  3.5437934428270237e+04  3.5949768367742101e+04  3.6396703938903876e+04  3.6784967973642430e+04  3.7123411455867637e+04  3.7422607937739216e+04  3.7693909414435737e+04  3.7948536175215988e+04  3.8196763648703192e+04  3.8447252286808449e+04  3.8706549189709607e+04  3.8978774662829506e+04  3.9265494277978942e+04  3.9565767316206970e+04  3.9876355049191116e+04  4.0192066291399031e+04  4.0506212340225997e+04  4.0811138594927528e+04  4.1098796124914086e+04  4.1361313973635617e+04  4.1591532908460067e+04  4.1783464352828552e+04  3.7646339837840846e+04  3.7875495201842787e+04  3.8115807437214957e+04  3.8351619339280020e+04  3.8564876183754626e+04  3.8735817806103390e+04  3.8843916573221068e+04  3.8869030026364126e+04  3.8792704720173591e+04  3.8599536211283819e+04  3.8278465231507631e+04  3.7823877911601376e+04  3.7236383285688862e+04  3.6523166260939972e+04  3.5697857132419835e+04  3.4779914005837891e+04  3.3793573470555486e+04  3.2766477365646599e+04  3.1728120033052262e+04  3.0708274476131981e+04  2.9735545237039663e+04  2.8836163458863270e+04  2.8033092652133080e+04  2.7345461765301156e+04  2.6788295077184812e+04  2.6372474046110547e+04  2.6104849067484891e+04  2.5988419853028900e+04  2.6022519342703788e+04  2.6202962966804036e+04  2.6522156866618123e+04  2.6969189357485364e+04  2.7529953968465692e+04  2.8187365338271291e+04  2.8921728197558634e+04  2.9711303918734331e+04  3.0533090605436621e+04  3.1363796047353448e+04  3.2180944784979489e+04  3.2964028541646869e+04  3.3695590092558945e+04  3.4362128547963846e+04  3.4954729863435772e+04  3.5469357332261607e+04  3.5906777102217238e+04  3.6272136097461684e+04  3.6574246973820962e+04  3.6824661410926521e+04  3.7036626292826011e+04  3.7224017164596378e+04  3.7400332211627407e+04  3.7577811814743021e+04  3.7766727788936587e+04  3.7974866402902051e+04  3.8207212623631582e+04  3.8465830679539853e+04  3.8749927641781571e+04  3.9056081120248600e+04  3.9378607949701087e+04  3.9710046777979529e+04  4.0041723269411072e+04  4.0364362446708175e+04  4.0668709360066670e+04  4.0946117925748447e+04  4.1189069444938796e+04  3.8701664521709899e+04  3.8975036249118719e+04  3.9249492946189523e+04  3.9507629468381267e+04  3.9729832479338373e+04  3.9895091394091934e+04  3.9982059276185566e+04  3.9970319826176856e+04  3.9841782268865856e+04  3.9582094319622294e+04  3.9181940922202382e+04  3.8638089225196440e+04  3.7954052580673953e+04  3.7140279251876964e+04  3.6213821991978257e+04  3.5197505695406013e+04  3.4118672013804979e+04  3.3007631304452414e+04  3.1895984113234652e+04  3.0814980821895660e+04  2.9794068435107572e+04  2.8859732356133332e+04  2.8034687159369070e+04  2.7337414574518618e+04  2.6781999389789555e+04  2.6378182320176053e+04  2.6131536726001901e+04  2.6043683048591964e+04  2.6112477373398975e+04  2.6332143041669777e+04  2.6693350261774642e+04  2.7183281783248578e+04  2.7785747067289158e+04  2.8481418354499165e+04  2.9248256747726497e+04  3.0062174592488391e+04  3.0897944826071427e+04  3.1730324413833478e+04  3.2535315568262446e+04  3.3291453877032960e+04  3.3980994151190956e+04  3.4590867016865130e+04  3.5113302080848960e+04  3.5546052741553853e+04  3.5892206038584278e+04  3.6159609565664199e+04  3.6359988232679083e+04  3.6507850668734194e+04  3.6619295719188725e+04  3.6710824628711118e+04  3.6798247674238482e+04  3.6895750297622224e+04  3.7015158440471387e+04  3.7165420075924507e+04  3.7352302450385090e+04  3.7578293019451143e+04  3.7842685651133957e+04  3.8141830586442993e+04  3.8469524864813284e+04  3.8817517811314756e+04  3.9176102937136078e+04  3.9534763376539129e+04  3.9882833738858048e+04  4.0210138412933105e+04  4.0507566330199450e+04  3.9835008862623370e+04  4.0155572306362119e+04  4.0466554821948237e+04  4.0748784186656128e+04  4.0981114200153454e+04  4.1141360150150824e+04  4.1207483693423703e+04  4.1158969497174934e+04  4.0978300271350898e+04  4.0652406067590397e+04  4.0173944680640729e+04  3.9542268618250877e+04  3.8763953973958931e+04  3.7852807509204089e+04  3.6829325863486214e+04  3.5719646634347620e+04  3.4554094119922367e+04  3.3365471489206342e+04  3.2187276950106942e+04  3.1052019441627424e+04  2.9989780417193037e+04  2.9027118785253162e+04  2.8186356296890081e+04  2.7485222287459699e+04  2.6936790077956510e+04  2.6549609530969366e+04  2.6327933883189122e+04  2.6271952535979279e+04  2.6377970369579249e+04  2.6638511977512429e+04  2.7042368992918829e+04  2.7574643551937108e+04  2.8216864776600745e+04  2.8947263134256595e+04  2.9741276918441668e+04  3.0572336154926514e+04  3.1412925793076029e+04  3.2235879352251108e+04  3.3015805824294934e+04  3.3730516502708713e+04  3.4362302461066611e+04  3.4898921620937101e+04  3.5334185714807267e+04  3.5668086168570822e+04  3.5906454849696958e+04  3.6060210427824713e+04  3.6144284616194789e+04  3.6176348690693099e+04  3.6175467333719898e+04  3.6160795908541913e+04  3.6150413626756097e+04  3.6160355107021947e+04  3.6203872792969858e+04  3.6290937427710094e+04  3.6427965928934362e+04  3.6617755960108712e+04  3.6859602803861359e+04  3.7149574300104061e+04  3.7480920893266994e+04  3.7844598059901480e+04  3.8229876410299948e+04  3.8625010623009053e+04  3.9017933168942647e+04  3.9396934238667942e+04  3.9751287226253800e+04  4.1020199356186822e+04  4.1390336263549652e+04  4.1739952226548194e+04  4.2048133463377395e+04  4.2292265204505238e+04  4.2449093298697218e+04  4.2496029861623807e+04  4.2412630912706234e+04  4.2182137642494316e+04  4.1792943999344789e+04  4.1239838585907812e+04  4.0524874003661935e+04  3.9657744458215282e+04  3.8655601213294482e+04  3.7542299435807363e+04  3.6347139364305061e+04  3.5103227719243179e+04  3.3845630386783487e+04  3.2609506179073032e+04  3.1428400522725689e+04  3.0332839888804399e+04  2.9349310734885916e+04  2.8499642263235040e+04  2.7800752712238660e+04  2.7264674450491690e+04  2.6898750089169083e+04  2.6705891721753324e+04  2.6684815611818907e+04  2.6830199633375167e+04  2.7132753455777591e+04  2.7579234349916500e+04  2.8152477325019448e+04  2.8831530634959050e+04  2.9591991566006596e+04  3.0406620353567290e+04  3.1246273093088712e+04  3.2081142723239755e+04  3.2882239435775991e+04  3.3622989346358780e+04  3.4280793967938596e+04  3.4838381217430775e+04  3.5284794724314430e+04  3.5615909652778239e+04  3.5834422395791611e+04  3.5949327248719928e+04  3.5974953639790452e+04  3.5929682679187761e+04  3.5834485572814243e+04  3.5711427526151550e+04  3.5582262348604832e+04  3.5467211484969892e+04  3.5383984433218277e+04  3.5347062721509414e+04  3.5367242113735083e+04  3.5451410092895763e+04  3.5602527844859927e+04  3.5819785754441640e+04  3.6098905508679520e+04  3.6432566815898594e+04  3.6810939737866771e+04  3.7222303194923632e+04  3.7653726279948700e+04  3.8091782821482273e+04  3.8523263213329497e+04  3.8935843143595463e+04  4.2226399858330966e+04  4.2647730648792603e+04  4.3037716636026911e+04  4.3373780473387254e+04  4.3631945337128425e+04  4.3788019437680108e+04  4.3819014572582637e+04  4.3704712324839646e+04  4.3429255446629460e+04  4.2982615655440859e+04  4.2361779384101414e+04  4.1571505018647404e+04  4.0624540493633547e+04  3.9541246034909615e+04  3.8348636034978379e+04  3.7078925636085543e+04  3.5767729142823708e+04  3.4452097540923271e+04  3.3168593553709259e+04  3.1951582880198162e+04  3.0831873858762767e+04  2.9835774424349886e+04  2.8984567508243024e+04  2.8294346609912041e+04  2.7776112036334071e+04  2.7436010621483212e+04  2.7275608058844318e+04  2.7292109635911725e+04  2.7478485782429154e+04  2.7823505757601804e+04  2.8311728020651884e+04  2.8923531688469211e+04  2.9635293219030842e+04  3.0419811064435089e+04  3.1247056445387112e+04  3.2085282630443420e+04  3.2902464793324034e+04  3.3667978295740628e+04  3.4354367802365494e+04  3.4939024928859792e+04  3.5405586405224683e+04  3.5744890389756190e+04  3.5955381393250893e+04  3.6042924436197674e+04  3.6020063436982949e+04  3.5904824053147167e+04  3.5719206618980359e+04  3.5487534602293126e+04  3.5234817908320802e+04  3.4985263174224383e+04  3.4761023048665171e+04  3.4581232583903708e+04  3.4461341509743965e+04  3.4412721963430144e+04  3.4442514603482385e+04  3.4553671219133743e+04  3.4745155939989920e+04  3.5012275759306998e+04  3.5347120085896000e+04  3.5739095110940063e+04  3.6175540078325481e+04  3.6642408920759888e+04  3.7124993510276923e+04  3.7608656332645798e+04  3.8079533447535854e+04  4.3418982168603638e+04  4.3892214474069777e+04  4.4323844088695805e+04  4.4689766282625125e+04  4.4964792582799484e+04  4.5123949557694672e+04  4.5143997700585467e+04  4.5005070468841572e+04  4.4692298493159404e+04  4.4197260954855665e+04  4.3519101818507224e+04  4.2665167374887067e+04  4.1651063980916828e+04  4.0500096926766200e+04  3.9242124464064422e+04  3.7911933414762796e+04  3.6547301690895569e+04  3.5186947524869800e+04  3.3868568666580373e+04  3.2627146783082095e+04  3.1493638708669467e+04  3.0494107984719547e+04  2.9649280676585226e+04  2.8974451453718728e+04  2.8479628691767248e+04  2.8169795325788778e+04  2.8045174769540328e+04  2.8101423842940942e+04  2.8329720247133304e+04  2.8716762473068724e+04  2.9244746663354272e+04  2.9891419771318197e+04  3.0630324329587369e+04  3.1431342322184129e+04  3.2261612614597841e+04  3.3086841412962749e+04  3.3872956655124006e+04  3.4587987529250779e+04  3.5203993613735714e+04  3.5698837030718838e+04  3.6057593379371014e+04  3.6273434091312534e+04  3.6347877984626270e+04  3.6290391078462868e+04  3.6117396036740618e+04  3.5850821258734300e+04  3.5516363596315896e+04  3.5141652697653459e+04  3.4754490182790069e+04  3.4381299823163048e+04  3.4045875559455220e+04  3.3768463252425448e+04  3.3565168603035505e+04  3.3447653539804858e+04  3.3423068541986882e+04  3.3494167346596223e+04  3.3659559318336062e+04  3.3914068350750618e+04  3.4249180551502650e+04  3.4653572296695027e+04  3.5113713382003123e+04  3.5614536713527625e+04  3.6140157735829009e+04  3.6674616256285539e+04  3.7202603651491219e+04  4.4560803067719717e+04  4.5085612460973840e+04  4.5559617497035717e+04  4.5957383069330317e+04  4.6252702580451580e+04  4.6419996790046120e+04  4.6435916017643227e+04  4.6281033760594961e+04  4.5941486415407329e+04  4.5410394465128738e+04  4.4688901549938848e+04  4.3786692885942495e+04  4.2721903055204486e+04  4.1520390030807292e+04  4.0214427848806808e+04  3.8840942194421914e+04  3.7439468537812172e+04  3.6050040965873231e+04  3.4711216067077476e+04  3.3458401083808967e+04  3.2322596326068931e+04  3.1329590486336969e+04  3.0499577802393036e+04  2.9847110476919162e+04  2.9381267021921627e+04  2.9105910762359337e+04  2.9019931119733395e+04  2.9117398176853811e+04  2.9387610738523621e+04  2.9815070923150110e+04  3.0379465299715936e+04  3.1055765198979661e+04  3.1814569829952143e+04  3.2622800549132593e+04  3.3444812511079137e+04  3.4243925748315654e+04  3.4984301698189687e+04  3.5633017532343882e+04  3.6162134702466828e+04  3.6550532765821001e+04  3.6785291885621977e+04  3.6862456738671608e+04  3.6787092408837045e+04  3.6572634784640381e+04  3.6239627007719420e+04  3.5814003897253257e+04  3.5325126912939289e+04  3.4803778763166301e+04  3.4280301962888065e+04  3.3783018022841352e+04  3.3337005291382280e+04  3.2963255853666808e+04  3.2678185096492994e+04  3.2493437389210379e+04  3.2415919209792202e+04  3.2447994539241070e+04  3.2587791499752126e+04  3.2829588040045179e+04  3.3164262333130690e+04  3.3579806152537210e+04  3.4061904461369057e+04  3.4594581498201573e+04  3.5160904365078117e+04  3.5743722464613616e+04  3.6326408665010487e+04  4.5613849306187891e+04  4.6188807083745945e+04  4.6705318910151982e+04  4.7136875931134382e+04  4.7456486633483953e+04  4.7638156205420972e+04  4.7658551212677979e+04  4.7498727905463304e+04  4.7145771224384938e+04  4.6594176011601478e+04  4.5846807944122098e+04  4.4915312123936135e+04  4.3819890620693383e+04  4.2588440358169893e+04  4.1255119237415602e+04  3.9858478572852087e+04  3.8439351205574872e+04  3.7038707427434369e+04  3.5695680780426679e+04  3.4445925079585832e+04  3.3320400986195600e+04  3.2344617719446371e+04  3.1538286933385341e+04  3.0915293496321909e+04  3.0483859811754439e+04  3.0246779105869915e+04  3.0201616554148331e+04  3.0340819311193918e+04  3.0651729288231672e+04  3.1116546686011112e+04  3.1712338406101018e+04  3.2411214626300654e+04  3.3180801728227685e+04  3.3985116220519652e+04  3.4785892900053230e+04  3.5544347688053218e+04  3.6223273453073765e+04  3.6789291499461018e+04  3.7215028469213277e+04  3.7480970896400977e+04  3.7576773471200984e+04  3.7501859559814329e+04  3.7265242841401421e+04  3.6884600428913771e+04  3.6384721898781252e+04  3.5795528794200567e+04  3.5149894584288755e+04  3.4481492606242471e+04  3.3822863760802844e+04  3.320383722861416