<?xml version="1.0"?>
<VTKFile type="UnstructuredGrid"  version="0.1"  >
<UnstructuredGrid>
<Piece  NumberOfPoints="4225" NumberOfCells="8192">
<Points>
<DataArray  type="Float64"  NumberOfComponents="3"  format="ascii">0 0 0  0.015625 0 0  0.03125 0 0  0.046875 0 0  0.0625 0 0  0.078125 0 0  0.09375 0 0  0.109375 0 0  0.125 0 0  0.140625 0 0  0.15625 0 0  0.171875 0 0  0.1875 0 0  0.203125 0 0  0.21875 0 0  0.234375 0 0  0.25 0 0  0.265625 0 0  0.28125 0 0  0.296875 0 0  0.3125 0 0  0.328125 0 0  0.34375 0 0  0.359375 0 0  0.375 0 0  0.390625 0 0  0.40625 0 0  0.421875 0 0  0.4375 0 0  0.453125 0 0  0.46875 0 0  0.484375 0 0  0.5 0 0  0.515625 0 0  0.53125 0 0  0.546875 0 0  0.5625 0 0  0.578125 0 0  0.59375 0 0  0.609375 0 0  0.625 0 0  0.640625 0 0  0.65625 0 0  0.671875 0 0  0.6875 0 0  0.703125 0 0  0.71875 0 0  0.734375 0 0  0.75 0 0  0.765625 0 0  0.78125 0 0  0.796875 0 0  0.8125 0 0  0.828125 0 0  0.84375 0 0  0.859375 0 0  0.875 0 0  0.890625 0 0  0.90625 0 0  0.921875 0 0  0.9375 0 0  0.953125 0 0  0.96875 0 0  0.984375 0 0  1 0 0  0 0.015625 0  0.015625 0.015625 0  0.03125 0.015625 0  0.046875 0.015625 0  0.0625 0.015625 0  0.078125 0.015625 0  0.09375 0.015625 0  0.109375 0.015625 0  0.125 0.015625 0  0.140625 0.015625 0  0.15625 0.015625 0  0.171875 0.015625 0  0.1875 0.015625 0  0.203125 0.015625 0  0.21875 0.015625 0  0.234375 0.015625 0  0.25 0.015625 0  0.265625 0.015625 0  0.28125 0.015625 0  0.296875 0.015625 0  0.3125 0.015625 0  0.328125 0.015625 0  0.34375 0.015625 0  0.359375 0.015625 0  0.375 0.015625 0  0.390625 0.015625 0  0.40625 0.015625 0  0.421875 0.015625 0  0.4375 0.015625 0  0.453125 0.015625 0  0.46875 0.015625 0  0.484375 0.015625 0  0.5 0.015625 0  0.515625 0.015625 0  0.53125 0.015625 0  0.546875 0.015625 0  0.5625 0.015625 0  0.578125 0.015625 0  0.59375 0.015625 0  0.609375 0.015625 0  0.625 0.015625 0  0.640625 0.015625 0  0.65625 0.015625 0  0.671875 0.015625 0  0.6875 0.015625 0  0.703125 0.015625 0  0.71875 0.015625 0  0.734375 0.015625 0  0.75 0.015625 0  0.765625 0.015625 0  0.78125 0.015625 0  0.796875 0.015625 0  0.8125 0.015625 0  0.828125 0.015625 0  0.84375 0.015625 0  0.859375 0.015625 0  0.875 0.015625 0  0.890625 0.015625 0  0.90625 0.015625 0  0.921875 0.015625 0  0.9375 0.015625 0  0.953125 0.015625 0  0.96875 0.015625 0  0.984375 0.015625 0  1 0.015625 0  0 0.03125 0  0.015625 0.03125 0  0.03125 0.03125 0  0.046875 0.03125 0  0.0625 0.03125 0  0.078125 0.03125 0  0.09375 0.03125 0  0.109375 0.03125 0  0.125 0.03125 0  0.140625 0.03125 0  0.15625 0.03125 0  0.171875 0.03125 0  0.1875 0.03125 0  0.203125 0.03125 0  0.21875 0.03125 0  0.234375 0.03125 0  0.25 0.03125 0  0.265625 0.03125 0  0.28125 0.03125 0  0.296875 0.03125 0  0.3125 0.03125 0  0.328125 0.03125 0  0.34375 0.03125 0  0.359375 0.03125 0  0.375 0.03125 0  0.390625 0.03125 0  0.40625 0.03125 0  0.421875 0.03125 0  0.4375 0.03125 0  0.453125 0.03125 0  0.46875 0.03125 0  0.484375 0.03125 0  0.5 0.03125 0  0.515625 0.03125 0  0.53125 0.03125 0  0.546875 0.03125 0  0.5625 0.03125 0  0.578125 0.03125 0  0.59375 0.03125 0  0.609375 0.03125 0  0.625 0.03125 0  0.640625 0.03125 0  0.65625 0.03125 0  0.671875 0.03125 0  0.6875 0.03125 0  0.703125 0.03125 0  0.71875 0.03125 0  0.734375 0.03125 0  0.75 0.03125 0  0.765625 0.03125 0  0.78125 0.03125 0  0.796875 0.03125 0  0.8125 0.03125 0  0.828125 0.03125 0  0.84375 0.03125 0  0.859375 0.03125 0  0.875 0.03125 0  0.890625 0.03125 0  0.90625 0.03125 0  0.921875 0.03125 0  0.9375 0.03125 0  0.953125 0.03125 0  0.96875 0.03125 0  0.984375 0.03125 0  1 0.03125 0  0 0.046875 0  0.015625 0.046875 0  0.03125 0.046875 0  0.046875 0.046875 0  0.0625 0.046875 0  0.078125 0.046875 0  0.09375 0.046875 0  0.109375 0.046875 0  0.125 0.046875 0  0.140625 0.046875 0  0.15625 0.046875 0  0.171875 0.046875 0  0.1875 0.046875 0  0.203125 0.046875 0  0.21875 0.046875 0  0.234375 0.046875 0  0.25 0.046875 0  0.265625 0.046875 0  0.28125 0.046875 0  0.296875 0.046875 0  0.3125 0.046875 0  0.328125 0.046875 0  0.34375 0.046875 0  0.359375 0.046875 0  0.375 0.046875 0  0.390625 0.046875 0  0.40625 0.046875 0  0.421875 0.046875 0  0.4375 0.046875 0  0.453125 0.046875 0  0.46875 0.046875 0  0.484375 0.046875 0  0.5 0.046875 0  0.515625 0.046875 0  0.53125 0.046875 0  0.546875 0.046875 0  0.5625 0.046875 0  0.578125 0.046875 0  0.59375 0.046875 0  0.609375 0.046875 0  0.625 0.046875 0  0.640625 0.046875 0  0.65625 0.046875 0  0.671875 0.046875 0  0.6875 0.046875 0  0.703125 0.046875 0  0.71875 0.046875 0  0.734375 0.046875 0  0.75 0.046875 0  0.765625 0.046875 0  0.78125 0.046875 0  0.796875 0.046875 0  0.8125 0.046875 0  0.828125 0.046875 0  0.84375 0.046875 0  0.859375 0.046875 0  0.875 0.046875 0  0.890625 0.046875 0  0.90625 0.046875 0  0.921875 0.046875 0  0.9375 0.046875 0  0.953125 0.046875 0  0.96875 0.046875 0  0.984375 0.046875 0  1 0.046875 0  0 0.0625 0  0.015625 0.0625 0  0.03125 0.0625 0  0.046875 0.0625 0  0.0625 0.0625 0  0.078125 0.0625 0  0.09375 0.0625 0  0.109375 0.0625 0  0.125 0.0625 0  0.140625 0.0625 0  0.15625 0.0625 0  0.171875 0.0625 0  0.1875 0.0625 0  0.203125 0.0625 0  0.21875 0.0625 0  0.234375 0.0625 0  0.25 0.0625 0  0.265625 0.0625 0  0.28125 0.0625 0  0.296875 0.0625 0  0.3125 0.0625 0  0.328125 0.0625 0  0.34375 0.0625 0  0.359375 0.0625 0  0.375 0.0625 0  0.390625 0.0625 0  0.40625 0.0625 0  0.421875 0.0625 0  0.4375 0.0625 0  0.453125 0.0625 0  0.46875 0.0625 0  0.484375 0.0625 0  0.5 0.0625 0  0.515625 0.0625 0  0.53125 0.0625 0  0.546875 0.0625 0  0.5625 0.0625 0  0.578125 0.0625 0  0.59375 0.0625 0  0.609375 0.0625 0  0.625 0.0625 0  0.640625 0.0625 0  0.65625 0.0625 0  0.671875 0.0625 0  0.6875 0.0625 0  0.703125 0.0625 0  0.71875 0.0625 0  0.734375 0.0625 0  0.75 0.0625 0  0.765625 0.0625 0  0.78125 0.0625 0  0.796875 0.0625 0  0.8125 0.0625 0  0.828125 0.0625 0  0.84375 0.0625 0  0.859375 0.0625 0  0.875 0.0625 0  0.890625 0.0625 0  0.90625 0.0625 0  0.921875 0.0625 0  0.9375 0.0625 0  0.953125 0.0625 0  0.96875 0.0625 0  0.984375 0.0625 0  1 0.0625 0  0 0.078125 0  0.015625 0.078125 0  0.03125 0.078125 0  0.046875 0.078125 0  0.0625 0.078125 0  0.078125 0.078125 0  0.09375 0.078125 0  0.109375 0.078125 0  0.125 0.078125 0  0.140625 0.078125 0  0.15625 0.078125 0  0.171875 0.078125 0  0.1875 0.078125 0  0.203125 0.078125 0  0.21875 0.078125 0  0.234375 0.078125 0  0.25 0.078125 0  0.265625 0.078125 0  0.28125 0.078125 0  0.296875 0.078125 0  0.3125 0.078125 0  0.328125 0.078125 0  0.34375 0.078125 0  0.359375 0.078125 0  0.375 0.078125 0  0.390625 0.078125 0  0.40625 0.078125 0  0.421875 0.078125 0  0.4375 0.078125 0  0.453125 0.078125 0  0.46875 0.078125 0  0.484375 0.078125 0  0.5 0.078125 0  0.515625 0.078125 0  0.53125 0.078125 0  0.546875 0.078125 0  0.5625 0.078125 0  0.578125 0.078125 0  0.59375 0.078125 0  0.609375 0.078125 0  0.625 0.078125 0  0.640625 0.078125 0  0.65625 0.078125 0  0.671875 0.078125 0  0.6875 0.078125 0  0.703125 0.078125 0  0.71875 0.078125 0  0.734375 0.078125 0  0.75 0.078125 0  0.765625 0.078125 0  0.78125 0.078125 0  0.796875 0.078125 0  0.8125 0.078125 0  0.828125 0.078125 0  0.84375 0.078125 0  0.859375 0.078125 0  0.875 0.078125 0  0.890625 0.078125 0  0.90625 0.078125 0  0.921875 0.078125 0  0.9375 0.078125 0  0.953125 0.078125 0  0.96875 0.078125 0  0.984375 0.078125 0  1 0.078125 0  0 0.09375 0  0.015625 0.09375 0  0.03125 0.09375 0  0.046875 0.09375 0  0.0625 0.09375 0  0.078125 0.09375 0  0.09375 0.09375 0  0.109375 0.09375 0  0.125 0.09375 0  0.140625 0.09375 0  0.15625 0.09375 0  0.171875 0.09375 0  0.1875 0.09375 0  0.203125 0.09375 0  0.21875 0.09375 0  0.234375 0.09375 0  0.25 0.09375 0  0.265625 0.09375 0  0.28125 0.09375 0  0.296875 0.09375 0  0.3125 0.09375 0  0.328125 0.09375 0  0.34375 0.09375 0  0.359375 0.09375 0  0.375 0.09375 0  0.390625 0.09375 0  0.40625 0.09375 0  0.421875 0.09375 0  0.4375 0.09375 0  0.453125 0.09375 0  0.46875 0.09375 0  0.484375 0.09375 0  0.5 0.09375 0  0.515625 0.09375 0  0.53125 0.09375 0  0.546875 0.09375 0  0.5625 0.09375 0  0.578125 0.09375 0  0.59375 0.09375 0  0.609375 0.09375 0  0.625 0.09375 0  0.640625 0.09375 0  0.65625 0.09375 0  0.671875 0.09375 0  0.6875 0.09375 0  0.703125 0.09375 0  0.71875 0.09375 0  0.734375 0.09375 0  0.75 0.09375 0  0.765625 0.09375 0  0.78125 0.09375 0  0.796875 0.09375 0  0.8125 0.09375 0  0.828125 0.09375 0  0.84375 0.09375 0  0.859375 0.09375 0  0.875 0.09375 0  0.890625 0.09375 0  0.90625 0.09375 0  0.921875 0.09375 0  0.9375 0.09375 0  0.953125 0.09375 0  0.96875 0.09375 0  0.984375 0.09375 0  1 0.09375 0  0 0.109375 0  0.015625 0.109375 0  0.03125 0.109375 0  0.046875 0.109375 0  0.0625 0.109375 0  0.078125 0.109375 0  0.09375 0.109375 0  0.109375 0.109375 0  0.125 0.109375 0  0.140625 0.109375 0  0.15625 0.109375 0  0.171875 0.109375 0  0.1875 0.109375 0  0.203125 0.109375 0  0.21875 0.109375 0  0.234375 0.109375 0  0.25 0.109375 0  0.265625 0.109375 0  0.28125 0.109375 0  0.296875 0.109375 0  0.3125 0.109375 0  0.328125 0.109375 0  0.34375 0.109375 0  0.359375 0.109375 0  0.375 0.109375 0  0.390625 0.109375 0  0.40625 0.109375 0  0.421875 0.109375 0  0.4375 0.109375 0  0.453125 0.109375 0  0.46875 0.109375 0  0.484375 0.109375 0  0.5 0.109375 0  0.515625 0.109375 0  0.53125 0.109375 0  0.546875 0.109375 0  0.5625 0.109375 0  0.578125 0.109375 0  0.59375 0.109375 0  0.609375 0.109375 0  0.625 0.109375 0  0.640625 0.109375 0  0.65625 0.109375 0  0.671875 0.109375 0  0.6875 0.109375 0  0.703125 0.109375 0  0.71875 0.109375 0  0.734375 0.109375 0  0.75 0.109375 0  0.765625 0.109375 0  0.78125 0.109375 0  0.796875 0.109375 0  0.8125 0.109375 0  0.828125 0.109375 0  0.84375 0.109375 0  0.859375 0.109375 0  0.875 0.109375 0  0.890625 0.109375 0  0.90625 0.109375 0  0.921875 0.109375 0  0.9375 0.109375 0  0.953125 0.109375 0  0.96875 0.109375 0  0.984375 0.109375 0  1 0.109375 0  0 0.125 0  0.015625 0.125 0  0.03125 0.125 0  0.046875 0.125 0  0.0625 0.125 0  0.078125 0.125 0  0.09375 0.125 0  0.109375 0.125 0  0.125 0.12
[...]
<PointData  Scalars="gamma"> 
<DataArray  type="Float64"  Name="gamma"  format="ascii">4.5680836292091088e+04  4.6190277842060386e+04  4.6711864094232784e+04  4.7242614452171372e+04  4.7778611653527638e+04  4.8314715717678591e+04  4.8844269134347203e+04  4.9358820459267226e+04  4.9847899469680720e+04  5.0298881468678308e+04  5.0696980279752053e+04  5.1025407908498913e+04  5.1265732753344375e+04  5.1398456827824717e+04  5.1403815411060568e+04  5.1262780356276722e+04  5.0958222480522811e+04  5.0476161692817666e+04  4.9807009466656673e+04  4.8946691202308793e+04  4.7897530146870551e+04  4.6668783081943715e+04  4.5276742337778953e+04  4.3744357691019555e+04  4.2100381365410365e+04  4.0378093163101985e+04  3.8613712578407416e+04  3.6844642283381305e+04  3.5107705843225296e+04  3.3437538218321060e+04  3.1865260927740150e+04  3.0417529290638977e+04  2.9115984867962386e+04  2.7977091664054809e+04  2.7012288913316046e+04  2.6228363114256099e+04  2.5627930627279922e+04  2.5209929220822723e+04  2.4970039112095739e+04  2.4900986256790002e+04  2.4992717280294306e+04  2.5232471100976552e+04  2.5604802112598521e+04  2.6091629579613062e+04  2.6672394352193278e+04  2.7324395196998597e+04  2.8023353106353243e+04  2.8744215700433779e+04  2.9462170833410353e+04  3.0153796365478782e+04  3.0798239966653022e+04  3.1378305688791541e+04  3.1881326784459132e+04  3.2299726731755061e+04  3.2631208467416134e+04  3.2878558238133970e+04  3.3049096764303162e+04  3.3153848736177621e+04  3.3206526474786166e+04  3.3222432539842455e+04  3.3217380080153445e+04  3.3206712307271628e+04  3.3204478552108812e+04  3.3222798990854302e+04  3.3271427426946757e+04  4.6087096581271180e+04  4.6611865540971448e+04  4.7148292745580984e+04  4.7693963319165508e+04  4.8245646120872225e+04  4.8798973863321095e+04  4.9348102060546247e+04  4.9885375066921071e+04  5.0401034396172603e+04  5.0883009997691610e+04  5.1316838270640474e+04  5.1685750220027970e+04  5.1970968154079288e+04  5.2152238679690672e+04  5.2208612892070087e+04  5.2119461768504050e+04  5.1865687151248298e+04  5.1431058912200511e+04  5.0803580739130150e+04  4.9976765144471741e+04  4.8950687616886171e+04  4.7732694373895523e+04  4.6337660173684162e+04  4.4787731650647162e+04  4.3111544032909078e+04  4.1342958251310723e+04  3.9519422586370121e+04  3.7680108712080946e+04  3.5863998113054884e+04  3.4108096285114363e+04  3.2445928193775704e+04  3.0906423272141899e+04  2.9513239958724269e+04  2.8284518875123085e+04  2.7233000662424587e+04  2.6366407404490285e+04  2.5687969864383376e+04  2.5196986679718779e+04  2.4889322946225653e+04  2.4757788840912930e+04  2.4792377892139510e+04  2.4980383206953924e+04  2.5306443116309460e+04  2.5752590810602062e+04  2.6298392073623250e+04  2.6921248994720787e+04  2.7596925379797289e+04  2.8300313996619439e+04  2.9006422155135209e+04  2.9691508097965612e+04  3.0334264784094550e+04  3.0916927355256463e+04  3.1426180426244518e+04  3.1853761766462056e+04  3.2196696104262021e+04  3.2457139536060295e+04  3.2641862642288561e+04  3.2761440653925576e+04  3.2829245851862986e+04  3.2860348062161262e+04  3.2870424300973304e+04  3.2874761750052268e+04  3.2887414301198900e+04  3.2920547120469710e+04  3.2983980379543733e+04  4.6474855769567032e+04  4.7008686602180089e+04  4.7553041669605474e+04  4.8106189523433764e+04  4.8665746335119999e+04  4.9228322856515268e+04  4.9789136068233012e+04  5.0341614580137022e+04  5.0877034646857595e+04  5.1384230145940732e+04  5.1849424125836114e+04  5.2256230458785867e+04  5.2585870486664149e+04  5.2817640117383067e+04  5.2929646735137627e+04  5.2899812361672535e+04  5.2707110689464265e+04  5.2332973243063192e+04  5.1762767807311095e+04  5.0987225348218089e+04  5.0003675385783790e+04  4.8816949078342419e+04  4.7439827377055233e+04  4.5892948978520944e+04  4.4204146470923362e+04  4.2407242582197425e+04  4.0540402618417640e+04  3.8644193630695605e+04  3.6759535977566593e+04  3.4925742077916155e+04  3.3178818175936001e+04  3.1550161070930044e+04  3.0065721009699057e+04  2.8745635402609350e+04  2.7604277414389730e+04  2.6650618527394727e+04  2.5888780714366636e+04  2.5318653096139235e+04  2.4936466991866648e+04  2.4735256460740591e+04  2.4705172030387475e+04  2.4833656695500973e+04  2.5105529639775268e+04  2.5503049661629335e+04  2.6006043206614657e+04  2.6592178816256750e+04  2.7237450230974162e+04  2.7916896479637144e+04  2.8605544103516248e+04  2.9279511704190303e+04  2.9917178916966994e+04  3.0500298563595275e+04  3.1014927280980213e+04  3.1452067433205757e+04  3.1807948281756206e+04  3.2083920343344715e+04  3.2285984884811187e+04  3.2424022088984235e+04  3.2510810144676016e+04  3.2560940175304666e+04  3.2589728824100705e+04  3.2612214654386760e+04  3.2642301217505657e+04  3.2692083967259794e+04  3.2771374624775570e+04  4.6840225485275718e+04  4.7376178837630592e+04  4.7920769608856623e+04  4.8473058647271093e+04  4.9031662739707281e+04  4.9594369629242581e+04  5.0157702117659865e+04  5.0716460889614282e+04  5.1263284246473675e+04  5.1788270288534964e+04  5.2278712410764580e+04  5.2719001225082618e+04  5.3090743914870305e+04  5.3373144196302550e+04  5.3543671326039454e+04  5.3579024375705703e+04  5.3456368779967772e+04  5.3154787917060174e+04  5.2656856808912518e+04  5.1950213013144050e+04  5.1028977354917464e+04  4.9894870076333777e+04  4.8557880581229940e+04  4.7036382829947128e+04  4.5356641562914097e+04  4.3551720963481566e+04  4.1659877832247017e+04  3.9722584666899129e+04  3.7782373265077898e+04  3.5880708189226643e+04  3.4056087819296532e+04  3.2342530631275338e+04  3.0768543155378673e+04  2.9356595146571748e+04  2.8123059624698697e+04  2.7078521943256517e+04  2.6228330450792349e+04  2.5573254169214939e+04  2.5110128044676541e+04  2.4832398148552256e+04  2.4730520526549135e+04  2.4792210957157717e+04  2.5002582283960634e+04  2.5344235995674397e+04  2.5797391329323204e+04  2.6340135748023324e+04  2.6948864450441521e+04  2.7598945353718715e+04  2.8265604365595151e+04  2.8924980885893445e+04  2.9555263899131107e+04  3.0137792842008850e+04  3.0658000337779908e+04  3.1106087670569741e+04  3.1477355918609082e+04  3.1772159631406994e+04  3.1995497340450867e+04  3.2156295466872605e+04  3.2266472585076313e+04  3.2339885867059031e+04  3.2391260692100535e+04  3.2435190665901551e+04  3.2485273327626845e+04  3.2553421834028166e+04  3.2649369424742072e+04  4.7180184354135126e+04  4.7710848614604023e+04  4.8247421314249841e+04  4.8789851239200885e+04  4.9337895130947007e+04  4.9890702330764165e+04  5.0446331782239577e+04  5.1001231481550814e+04  5.1549719608039217e+04  5.2083514578207258e+04  5.2591367464870600e+04  5.3058853683791589e+04  5.3468380342722696e+04  5.3799459708533570e+04  5.4029286424691323e+04  5.4133635384018897e+04  5.4088068475525622e+04  5.3869403204466733e+04  5.3457357663389404e+04  5.2836249512657640e+04  5.1996597776608724e+04  5.0936461904963187e+04  4.9662358129631495e+04  4.8189621576277692e+04  4.6542133070349053e+04  4.4751397043497956e+04  4.2855032394637936e+04  4.0894809948134854e+04  3.8914426112393507e+04  3.6957232306538928e+04  3.5064137873111766e+04  3.3271870613145686e+04  3.1611719994730043e+04  3.0108814623680690e+04  2.8781911254727940e+04  2.7643610313710968e+04  2.6700871987759536e+04  2.5955691683969955e+04  2.5405803021963984e+04  2.5045305344570745e+04  2.4865153580949322e+04  2.4853493321995928e+04  2.4995866108121048e+04  2.5275343442111887e+04  2.5672668593954826e+04  2.6166490018641674e+04  2.6733758140162758e+04  2.7350329694075459e+04  2.7991784839652410e+04  2.8634418496424161e+04  2.9256327068917533e+04  2.9838483048654656e+04  3.0365679049489449e+04  3.0827232168303191e+04  3.1217367417309579e+04  3.1535239763218298e+04  3.1784600042402712e+04  3.1973152265940553e+04  3.2111681626643240e+04  3.2213049759379563e+04  3.2291155736042510e+04  3.2359950156255069e+04  3.2432569789510482e+04  3.2520636516940856e+04  3.2633741314262887e+04  4.7492692165251705e+04  4.8010426669916335e+04  4.8530432211197141e+04  4.9053624012248263e+04  4.9581018499727019e+04  5.0113289268751781e+04  5.0650237931206662e+04  5.1190210422638265e+04  5.1729498888020556e+04  5.2261777663426437e+04  5.2777628640915522e+04  5.3264215733727870e+04  5.3705169161615231e+04  5.4080736382257019e+04  5.4368246038187237e+04  5.4542912813824310e+04  5.4578983937817291e+04  5.4451192970980686e+04  5.4136446140425389e+04  5.3615625512652208e+04  5.2875358124940081e+04  5.1909577965928249e+04  5.0720704949983563e+04  4.9320286096579664e+04  4.7728989695003365e+04  4.5975909481754614e+04  4.4097214467300277e+04  4.2134259288711335e+04  4.0131336722544678e+04  3.8133296406980451e+04  3.6183263932921654e+04  3.4320670198053609e+04  3.2579746823835980e+04  3.0988569843091711e+04  2.9568654594118329e+04  2.8335033945101652e+04  2.7296700933464297e+04  2.6457271919379484e+04  2.5815727981793920e+04  2.5367116215412232e+04  2.5103131476135972e+04  2.5012544645295649e+04  2.5081487896479262e+04  2.5293644399263037e+04  2.5630414631569551e+04  2.6071140873724387e+04  2.6593464205636377e+04  2.7173865312283153e+04  2.7788405088085095e+04  2.8413639409373998e+04  2.9027642259845114e+04  2.9611040659276416e+04  3.0147950007209773e+04  3.0626702774298530e+04  3.1040286180905576e+04  3.1386440985227797e+04  3.1667416509459508e+04  3.1889418476769202e+04  3.2061819076631611e+04  3.2196218369881059e+04  3.2305451286264080e+04  3.2402626624620290e+04  3.2500267327538411e+04  3.2609599487151194e+04  3.2740015428777253e+04  4.7776736059178693e+04  4.8273946035377732e+04  4.8768844501394553e+04  4.9263371210874269e+04  4.9759897488419083e+04  5.0260755097919420e+04  5.0767662146872804e+04  5.1281077303812723e+04  5.1799523352137760e+04  5.2318929562279423e+04  5.2832049310958973e+04  5.3328014395482547e+04  5.3792089747995109e+04  5.4205690385442154e+04  5.4546714645112719e+04  5.4790232201575869e+04  5.4909540729029664e+04  5.4877571320400602e+04  5.4668581776267230e+04  5.4260032774162893e+04  5.3634500965755862e+04  5.2781452788556293e+04  5.1698690746499713e+04  5.0393295897927281e+04  4.8881928664941079e+04  4.7190412601993412e+04  4.5352605238034324e+04  4.3408645158601124e+04  4.1402741428141831e+04  3.9380726911133817e+04  3.7387620894671512e+04  3.5465434134267147e+04  3.3651403415486537e+04  3.1976771881890836e+04  3.0466149269731130e+04  2.9137407858465918e+04  2.8002008529337952e+04  2.7065615320061501e+04  2.6328848846213241e+04  2.5788045958454888e+04  2.5435928168108287e+04  2.5262126142592340e+04  2.5253553568718111e+04  2.5394663859349941e+04  2.5667652244238121e+04  2.6052680236877826e+04  2.6528197644660981e+04  2.7071419611732868e+04  2.7658985465945443e+04  2.8267787617551960e+04  2.8875919516591908e+04  2.9463659415639500e+04  3.0014388036039156e+04  3.0515337156806949e+04  3.0958082913807935e+04  3.1338728750900918e+04  3.1657762216355131e+04  3.1919609625773370e+04  3.2131946049233062e+04  3.2304840187760361e+04  3.2449822383606890e+04  3.2578960017709880e+04  3.2704010843629960e+04  3.2835705498429772e+04  3.2983189673080502e+04  4.8032298929225064e+04  4.8501729522706126e+04  4.8963318872163567e+04  4.9420066413334003e+04  4.9875765089601817e+04  5.0334504398586767e+04  5.0800052592224070e+04  5.1275150420369042e+04  5.1760758564733827e+04  5.2255309080514540e+04  5.2754017819927685e+04  5.3248319919873597e+04  5.3725493525642545e+04  5.4168536862873370e+04  5.4556358762505348e+04  5.4864330618573760e+04  5.5065226573968481e+04  5.5130547572125695e+04  5.5032184712687173e+04  5.4744331445506497e+04  5.4245508349443495e+04  5.3520526277499433e+04  5.2562191836815691e+04  5.1372560705216085e+04  4.9963573343645105e+04  4.8356963871694679e+04  4.6583410573839297e+04  4.4680985153860769e+04  4.2693043626438433e+04  4.0665770090861617e+04  3.8645623359345394e+04  3.6676938406126988e+04  3.4799899662863041e+04  3.3049038268639139e+04  3.1452323132066318e+04  3.0030831515619626e+04  2.8798913499128834e+04  2.7764716883504603e+04  2.6930919774615468e+04  2.6295526100920426e+04  2.5852608789997776e+04  2.5592927807543707e+04  2.5504396877693725e+04  2.5572415686628581e+04  2.5780117764954222e+04  2.6108604040524024e+04  2.6537236163660229e+04  2.7044052048118981e+04  2.7606340770629413e+04  2.8201379437649535e+04  2.8807297170056630e+04  2.9403998197191282e+04  2.9974053860056152e+04  3.0503466671733200e+04  3.0982219823446030e+04  3.1404550470375078e+04  3.1768919654641566e+04  3.2077689077779632e+04  3.2336548392823795e+04  3.2553761011317765e+04  3.2739308810898918e+04  3.2904016445486719e+04  3.3058726295333858e+04  3.3213578904270493e+04  3.3377434850278521e+04  4.8260245511725981e+04  4.8695280401483404e+04  4.9116033212223258e+04  4.9526573439606684e+04  4.9932150902505797e+04  5.0338673821537617e+04  5.0752048400222469e+04  5.1177414004466234e+04  5.1618317646578966e+04  5.2075879017712599e+04  5.2548003175912221e+04  5.3028702603265425e+04  5.3507593700366793e+04  5.3969634125494442e+04  5.4395165040820095e+04  5.4760313923239322e+04  5.5037796613821061e+04  5.5198129907250732e+04  5.5211228076130035e+04  5.5048310595765375e+04  5.4683999084237868e+04  5.4098436641373017e+04  5.3279231228931756e+04  5.2223014938487737e+04  5.0936428945417152e+04  4.9436391347228462e+04  4.7749578184984995e+04  4.5911137520071359e+04  4.3962749026645142e+04  4.1950221868774301e+04  3.9920877616918580e+04  3.7920982914455126e+04  3.5993475472716811e+04  3.4176171218405398e+04  3.2500561138804467e+04  3.0991218779723429e+04  2.9665759264498833e+04  2.8535231019163002e+04  2.7604789561630896e+04  2.6874499862540244e+04  2.6340135521885379e+04  2.5993881419309953e+04  2.5824892474112410e+04  2.5819706252280757e+04  2.5962544672412565e+04  2.6235565341580666e+04  2.6619133471473437e+04  2.7092180238653225e+04  2.7632694273887624e+04  2.8218363234556626e+04  2.8827347572488652e+04  2.9439135265687582e+04  3.0035400989238307e+04  3.0600781028988444e+04  3.1123478586661084e+04  3.1595632146544249e+04  3.2013408462387626e+04  3.2376815707644284e+04  3.2689265110133478e+04  3.2956935557420096e+04  3.3188011748243473e+04  3.3391871399327574e+04  3.3578291918580413e+04  3.3756734495533950e+04  3.3935747084761882e+04  4.8462127590967815e+04  4.8857076922581458e+04  4.9230468020269225e+04  4.9587424806531599e+04  4.9934655733710832e+04  5.0279907336919947e+04  5.0631262045258343e+04  5.0996316786966883e+04  5.1381288287084280e+04  5.1790097555272951e+04  5.2223490632993366e+04  5.2678256138090430e+04  5.3146603088897835e+04  5.3615764643450697e+04  5.4067893361464186e+04  5.4480308946331206e+04  5.4826147155897823e+04  5.5075436003472882e+04  5.5196591212166211e+04  5.5158278236255981e+04  5.4931537126877127e+04  5.4492016138950486e+04  5.3822119342387268e+04  5.2912852093165762e+04  5.1765153778083826e+04  5.0390543647430510e+04  4.8810971250389121e+04  4.7057850524378286e+04  4.5170353398795443e+04  4.3193129308048905e+04  4.1173685767173061e+04  3.9159699988164022e+04  3.7196526362927514e+04  3.5325121083578430e+04  3.3580532167187266e+04  3.1991015022213607e+04  3.0577746818218333e+04  2.9355042025883911e+04  2.8330926587648788e+04  2.7507912958347690e+04  2.6883830303302318e+04  2.6452596578777080e+04  2.6204863040116259e+04  2.6128507960476509e+04  2.6208997509965018e+04  2.6429662435359842e+04  2.6771956113952045e+04  2.7215761449319114e+04  2.7739801602614181e+04  2.8322185359364572e+04  2.8941086530375345e+04  2.9575524052389010e+04  3.0206181669663169e+04  3.0816188663188030e+04  3.1391779403532775e+04  3.1922760056252646e+04  3.2402733188620663e+04  3.2829060701206115e+04  3.3202576763339530e+04  3.3527089858603627e+04  3.3808732614826811e+04  3.4055227790600125e+04  3.4275138698423805e+04  3.4477164227311085e+04  3.4669525230075509e+04  4.8639915825111530e+04  4.8990278509744312e+04  4.9311086677772291e+04  4.9608476233304726e+04  4.9890581256164769e+04  5.0166963219270896e+04  5.0447867704680059e+04  5.0743348402783740e+04  5.1062307266376767e+04  5.1411505118593268e+04  5.1794599847105019e+04  5.2211271022122921e+04  5.2656491579487592e+04  5.3120009462214475e+04  5.3586103848149607e+04  5.4033679458143240e+04  5.4436755104245232e+04  5.4765385632756625e+04  5.4987027295680426e+04  5.5068315113250523e+04  5.4977169838368522e+04  5.4685097918705949e+04  5.4169499325428391e+04  5.3415765467233403e+04  5.2418941914607378e+04  5.1184754358603990e+04  4.9729851973121367e+04  4.8081204817582657e+04  4.6274689950565189e+04  4.4352999272206158e+04  4.2363084293905311e+04  4.0353404740060207e+04  3.8371260131454161e+04  3.6460454716808599e+04  3.4659482613633576e+04  3.3000334570611747e+04  3.1507936671187996e+04  3.0200150648519160e+04  2.9088207668143685e+04  2.8177418889556164e+04  2.7468006801622909e+04  2.6955925884466313e+04  2.6633581105421530e+04  2.6490398867517753e+04  2.6513249089094541e+04  2.6686752870214652e+04  2.6993533649989484e+04  2.7414478879536098e+04  2.7929073922161340e+04  2.8515851889586338e+04  2.9152975971469703e+04  2.9818939558467900e+04  3.0493339945972741e+04  3.1157659234253526e+04  3.1795975389493149e+04  3.2395529136923044e+04  3.2947087546808376e+04  3.3445069557812887e+04  3.3887427428784096e+04  3.4275306013773879e+04  3.4612524367246049e+04  3.4904938621478243e+04  3.5159750343412481e+04  3.5384821425912043e+04  3.5588046998003541e+04  4.8795671403138564e+04  4.9098358108291635e+04  4.9362926594836783e+04  4.9596454969873841e+04  4.9808434455688446e+04  5.0010174522235531e+04  5.0214019238913032e+04  5.0432418672724256e+04  5.0676908027739286e+04  5.0957051344393396e+04  5.1279407324068154e+04  5.1646574227862482e+04  5.2056370743394516e+04  5.2501211278058108e+04  5.2967736912995257e+04  5.3436765141163552e+04  5.3883619007081783e+04  5.4278885243381854e+04  5.4589627920882776e+04  5.4781047382278004e+04  5.4818525273421277e+04  5.4669940420053230e+04  5.4308085565337089e+04  5.3712972107426016e+04  5.2873789481671563e+04  5.1790295774985716e+04  5.0473459850045612e+04  4.8945249791727409e+04  4.7237558569851011e+04  4.5390361039803247e+04  4.3449289867102649e+04  4.1462885635862069e+04  3.9479806563105478e+04  3.7546271106775646e+04  3.5703955616045874e+04  3.3988489677026417e+04  3.2428599503101759e+04  3.1045861468174622e+04  2.9854958116312417e+04  2.8864286846035800e+04  2.8076759570171624e+04  2.7490646608010389e+04  2.7100352386186940e+04  2.6897055025785641e+04  2.6869187804903533e+04  2.7002780750548383e+04  2.7281710346012507e+04  2.7687921749194571e+04  2.8201690085187074e+04  2.8801976131069758e+04  2.9466909593788125e+04  3.0174404315761869e+04  3.0902879389146772e+04  3.1632033896613324e+04  3.2343605651948179e+04  3.3022038949194044e+04  3.3654993595483313e+04  3.4233645576988842e+04  3.4752754822569848e+04  3.5210502925922345e+04  3.5608128697312059e+04  3.5949408394892853e+04  3.6240038374407290e+04  3.6486980347619756e+04  3.6697824556511085e+04  4.8931175666230920e+04  4.9184680821253423e+04  4.9391123746766883e+04  4.9558427305066871e+04  4.9697335531376717e+04  4.9820795440228321e+04  4.9943134197899351e+04  5.0079080203965743e+04  5.0242685416561791e+04  5.0446209066943069e+04  5.0699021359476181e+04  5.1006582382803790e+04  5.1369548905658361e+04  5.1783061823674128e+04  5.2236270018398034e+04  5.2712150590320496e+04  5.3187687328492902e+04  5.3634464278145388e+04  5.4019714860809225e+04  5.4307836233358219e+04  5.4462333400056741e+04  5.4448101765058746e+04  5.4233897921186122e+04  5.3794796968668219e+04  5.3114401939968448e+04  5.2186566789318764e+04  5.1016424582341213e+04  4.9620576658008824e+04  4.8026389556829439e+04  4.6270451384141626e+04  4.4396341250414582e+04  4.2451947283415924e+04  4.0486616345310824e+04  3.8548424111340588e+04  3.6681817654301492e+04  3.4925812180662426e+04  3.3312833238267180e+04  3.1868202548985981e+04  3.0610185595434366e+04  2.9550463853923105e+04  2.8694869477210563e+04  2.8044224220746411e+04  2.7595151415135588e+04  2.7340771082047551e+04  2.7271234779666662e+04  2.7374100649655684e+04  2.7634584676185648e+04  2.8035747726849222e+04  2.8558687762413210e+04  2.918280258009721