<?xml version="1.0"?>
<VTKFile type="UnstructuredGrid"  version="0.1"  >
<UnstructuredGrid>
<Piece  NumberOfPoints="4225" NumberOfCells="8192">
<Points>
<DataArray  type="Float64"  NumberOfComponents="3"  format="ascii">0 0 0  0.015625 0 0  0.03125 0 0  0.046875 0 0  0.0625 0 0  0.078125 0 0  0.09375 0 0  0.109375 0 0  0.125 0 0  0.140625 0 0  0.15625 0 0  0.171875 0 0  0.1875 0 0  0.203125 0 0  0.21875 0 0  0.234375 0 0  0.25 0 0  0.265625 0 0  0.28125 0 0  0.296875 0 0  0.3125 0 0  0.328125 0 0  0.34375 0 0  0.359375 0 0  0.375 0 0  0.390625 0 0  0.40625 0 0  0.421875 0 0  0.4375 0 0  0.453125 0 0  0.46875 0 0  0.484375 0 0  0.5 0 0  0.515625 0 0  0.53125 0 0  0.546875 0 0  0.5625 0 0  0.578125 0 0  0.59375 0 0  0.609375 0 0  0.625 0 0  0.640625 0 0  0.65625 0 0  0.671875 0 0  0.6875 0 0  0.703125 0 0  0.71875 0 0  0.734375 0 0  0.75 0 0  0.765625 0 0  0.78125 0 0  0.796875 0 0  0.8125 0 0  0.828125 0 0  0.84375 0 0  0.859375 0 0  0.875 0 0  0.890625 0 0  0.90625 0 0  0.921875 0 0  0.9375 0 0  0.953125 0 0  0.96875 0 0  0.984375 0 0  1 0 0  0 0.015625 0  0.015625 0.015625 0  0.03125 0.015625 0  0.046875 0.015625 0  0.0625 0.015625 0  0.078125 0.015625 0  0.09375 0.015625 0  0.109375 0.015625 0  0.125 0.015625 0  0.140625 0.015625 0  0.15625 0.015625 0  0.171875 0.015625 0  0.1875 0.015625 0  0.203125 0.015625 0  0.21875 0.015625 0  0.234375 0.015625 0  0.25 0.015625 0  0.265625 0.015625 0  0.28125 0.015625 0  0.296875 0.015625 0  0.3125 0.015625 0  0.328125 0.015625 0  0.34375 0.015625 0  0.359375 0.015625 0  0.375 0.015625 0  0.390625 0.015625 0  0.40625 0.015625 0  0.421875 0.015625 0  0.4375 0.015625 0  0.453125 0.015625 0  0.46875 0.015625 0  0.484375 0.015625 0  0.5 0.015625 0  0.515625 0.015625 0  0.53125 0.015625 0  0.546875 0.015625 0  0.5625 0.015625 0  0.578125 0.015625 0  0.59375 0.015625 0  0.609375 0.015625 0  0.625 0.015625 0  0.640625 0.015625 0  0.65625 0.015625 0  0.671875 0.015625 0  0.6875 0.015625 0  0.703125 0.015625 0  0.71875 0.015625 0  0.734375 0.015625 0  0.75 0.015625 0  0.765625 0.015625 0  0.78125 0.015625 0  0.796875 0.015625 0  0.8125 0.015625 0  0.828125 0.015625 0  0.84375 0.015625 0  0.859375 0.015625 0  0.875 0.015625 0  0.890625 0.015625 0  0.90625 0.015625 0  0.921875 0.015625 0  0.9375 0.015625 0  0.953125 0.015625 0  0.96875 0.015625 0  0.984375 0.015625 0  1 0.015625 0  0 0.03125 0  0.015625 0.03125 0  0.03125 0.03125 0  0.046875 0.03125 0  0.0625 0.03125 0  0.078125 0.03125 0  0.09375 0.03125 0  0.109375 0.03125 0  0.125 0.03125 0  0.140625 0.03125 0  0.15625 0.03125 0  0.171875 0.03125 0  0.1875 0.03125 0  0.203125 0.03125 0  0.21875 0.03125 0  0.234375 0.03125 0  0.25 0.03125 0  0.265625 0.03125 0  0.28125 0.03125 0  0.296875 0.03125 0  0.3125 0.03125 0  0.328125 0.03125 0  0.34375 0.03125 0  0.359375 0.03125 0  0.375 0.03125 0  0.390625 0.03125 0  0.40625 0.03125 0  0.421875 0.03125 0  0.4375 0.03125 0  0.453125 0.03125 0  0.46875 0.03125 0  0.484375 0.03125 0  0.5 0.03125 0  0.515625 0.03125 0  0.53125 0.03125 0  0.546875 0.03125 0  0.5625 0.03125 0  0.578125 0.03125 0  0.59375 0.03125 0  0.609375 0.03125 0  0.625 0.03125 0  0.640625 0.03125 0  0.65625 0.03125 0  0.671875 0.03125 0  0.6875 0.03125 0  0.703125 0.03125 0  0.71875 0.03125 0  0.734375 0.03125 0  0.75 0.03125 0  0.765625 0.03125 0  0.78125 0.03125 0  0.796875 0.03125 0  0.8125 0.03125 0  0.828125 0.03125 0  0.84375 0.03125 0  0.859375 0.03125 0  0.875 0.03125 0  0.890625 0.03125 0  0.90625 0.03125 0  0.921875 0.03125 0  0.9375 0.03125 0  0.953125 0.03125 0  0.96875 0.03125 0  0.984375 0.03125 0  1 0.03125 0  0 0.046875 0  0.015625 0.046875 0  0.03125 0.046875 0  0.046875 0.046875 0  0.0625 0.046875 0  0.078125 0.046875 0  0.09375 0.046875 0  0.109375 0.046875 0  0.125 0.046875 0  0.140625 0.046875 0  0.15625 0.046875 0  0.171875 0.046875 0  0.1875 0.046875 0  0.203125 0.046875 0  0.21875 0.046875 0  0.234375 0.046875 0  0.25 0.046875 0  0.265625 0.046875 0  0.28125 0.046875 0  0.296875 0.046875 0  0.3125 0.046875 0  0.328125 0.046875 0  0.34375 0.046875 0  0.359375 0.046875 0  0.375 0.046875 0  0.390625 0.046875 0  0.40625 0.046875 0  0.421875 0.046875 0  0.4375 0.046875 0  0.453125 0.046875 0  0.46875 0.046875 0  0.484375 0.046875 0  0.5 0.046875 0  0.515625 0.046875 0  0.53125 0.046875 0  0.546875 0.046875 0  0.5625 0.046875 0  0.578125 0.046875 0  0.59375 0.046875 0  0.609375 0.046875 0  0.625 0.046875 0  0.640625 0.046875 0  0.65625 0.046875 0  0.671875 0.046875 0  0.6875 0.046875 0  0.703125 0.046875 0  0.71875 0.046875 0  0.734375 0.046875 0  0.75 0.046875 0  0.765625 0.046875 0  0.78125 0.046875 0  0.796875 0.046875 0  0.8125 0.046875 0  0.828125 0.046875 0  0.84375 0.046875 0  0.859375 0.046875 0  0.875 0.046875 0  0.890625 0.046875 0  0.90625 0.046875 0  0.921875 0.046875 0  0.9375 0.046875 0  0.953125 0.046875 0  0.96875 0.046875 0  0.984375 0.046875 0  1 0.046875 0  0 0.0625 0  0.015625 0.0625 0  0.03125 0.0625 0  0.046875 0.0625 0  0.0625 0.0625 0  0.078125 0.0625 0  0.09375 0.0625 0  0.109375 0.0625 0  0.125 0.0625 0  0.140625 0.0625 0  0.15625 0.0625 0  0.171875 0.0625 0  0.1875 0.0625 0  0.203125 0.0625 0  0.21875 0.0625 0  0.234375 0.0625 0  0.25 0.0625 0  0.265625 0.0625 0  0.28125 0.0625 0  0.296875 0.0625 0  0.3125 0.0625 0  0.328125 0.0625 0  0.34375 0.0625 0  0.359375 0.0625 0  0.375 0.0625 0  0.390625 0.0625 0  0.40625 0.0625 0  0.421875 0.0625 0  0.4375 0.0625 0  0.453125 0.0625 0  0.46875 0.0625 0  0.484375 0.0625 0  0.5 0.0625 0  0.515625 0.0625 0  0.53125 0.0625 0  0.546875 0.0625 0  0.5625 0.0625 0  0.578125 0.0625 0  0.59375 0.0625 0  0.609375 0.0625 0  0.625 0.0625 0  0.640625 0.0625 0  0.65625 0.0625 0  0.671875 0.0625 0  0.6875 0.0625 0  0.703125 0.0625 0  0.71875 0.0625 0  0.734375 0.0625 0  0.75 0.0625 0  0.765625 0.0625 0  0.78125 0.0625 0  0.796875 0.0625 0  0.8125 0.0625 0  0.828125 0.0625 0  0.84375 0.0625 0  0.859375 0.0625 0  0.875 0.0625 0  0.890625 0.0625 0  0.90625 0.0625 0  0.921875 0.0625 0  0.9375 0.0625 0  0.953125 0.0625 0  0.96875 0.0625 0  0.984375 0.0625 0  1 0.0625 0  0 0.078125 0  0.015625 0.078125 0  0.03125 0.078125 0  0.046875 0.078125 0  0.0625 0.078125 0  0.078125 0.078125 0  0.09375 0.078125 0  0.109375 0.078125 0  0.125 0.078125 0  0.140625 0.078125 0  0.15625 0.078125 0  0.171875 0.078125 0  0.1875 0.078125 0  0.203125 0.078125 0  0.21875 0.078125 0  0.234375 0.078125 0  0.25 0.078125 0  0.265625 0.078125 0  0.28125 0.078125 0  0.296875 0.078125 0  0.3125 0.078125 0  0.328125 0.078125 0  0.34375 0.078125 0  0.359375 0.078125 0  0.375 0.078125 0  0.390625 0.078125 0  0.40625 0.078125 0  0.421875 0.078125 0  0.4375 0.078125 0  0.453125 0.078125 0  0.46875 0.078125 0  0.484375 0.078125 0  0.5 0.078125 0  0.515625 0.078125 0  0.53125 0.078125 0  0.546875 0.078125 0  0.5625 0.078125 0  0.578125 0.078125 0  0.59375 0.078125 0  0.609375 0.078125 0  0.625 0.078125 0  0.640625 0.078125 0  0.65625 0.078125 0  0.671875 0.078125 0  0.6875 0.078125 0  0.703125 0.078125 0  0.71875 0.078125 0  0.734375 0.078125 0  0.75 0.078125 0  0.765625 0.078125 0  0.78125 0.078125 0  0.796875 0.078125 0  0.8125 0.078125 0  0.828125 0.078125 0  0.84375 0.078125 0  0.859375 0.078125 0  0.875 0.078125 0  0.890625 0.078125 0  0.90625 0.078125 0  0.921875 0.078125 0  0.9375 0.078125 0  0.953125 0.078125 0  0.96875 0.078125 0  0.984375 0.078125 0  1 0.078125 0  0 0.09375 0  0.015625 0.09375 0  0.03125 0.09375 0  0.046875 0.09375 0  0.0625 0.09375 0  0.078125 0.09375 0  0.09375 0.09375 0  0.109375 0.09375 0  0.125 0.09375 0  0.140625 0.09375 0  0.15625 0.09375 0  0.171875 0.09375 0  0.1875 0.09375 0  0.203125 0.09375 0  0.21875 0.09375 0  0.234375 0.09375 0  0.25 0.09375 0  0.265625 0.09375 0  0.28125 0.09375 0  0.296875 0.09375 0  0.3125 0.09375 0  0.328125 0.09375 0  0.34375 0.09375 0  0.359375 0.09375 0  0.375 0.09375 0  0.390625 0.09375 0  0.40625 0.09375 0  0.421875 0.09375 0  0.4375 0.09375 0  0.453125 0.09375 0  0.46875 0.09375 0  0.484375 0.09375 0  0.5 0.09375 0  0.515625 0.09375 0  0.53125 0.09375 0  0.546875 0.09375 0  0.5625 0.09375 0  0.578125 0.09375 0  0.59375 0.09375 0  0.609375 0.09375 0  0.625 0.09375 0  0.640625 0.09375 0  0.65625 0.09375 0  0.671875 0.09375 0  0.6875 0.09375 0  0.703125 0.09375 0  0.71875 0.09375 0  0.734375 0.09375 0  0.75 0.09375 0  0.765625 0.09375 0  0.78125 0.09375 0  0.796875 0.09375 0  0.8125 0.09375 0  0.828125 0.09375 0  0.84375 0.09375 0  0.859375 0.09375 0  0.875 0.09375 0  0.890625 0.09375 0  0.90625 0.09375 0  0.921875 0.09375 0  0.9375 0.09375 0  0.953125 0.09375 0  0.96875 0.09375 0  0.984375 0.09375 0  1 0.09375 0  0 0.109375 0  0.015625 0.109375 0  0.03125 0.109375 0  0.046875 0.109375 0  0.0625 0.109375 0  0.078125 0.109375 0  0.09375 0.109375 0  0.109375 0.109375 0  0.125 0.109375 0  0.140625 0.109375 0  0.15625 0.109375 0  0.171875 0.109375 0  0.1875 0.109375 0  0.203125 0.109375 0  0.21875 0.109375 0  0.234375 0.109375 0  0.25 0.109375 0  0.265625 0.109375 0  0.28125 0.109375 0  0.296875 0.109375 0  0.3125 0.109375 0  0.328125 0.109375 0  0.34375 0.109375 0  0.359375 0.109375 0  0.375 0.109375 0  0.390625 0.109375 0  0.40625 0.109375 0  0.421875 0.109375 0  0.4375 0.109375 0  0.453125 0.109375 0  0.46875 0.109375 0  0.484375 0.109375 0  0.5 0.109375 0  0.515625 0.109375 0  0.53125 0.109375 0  0.546875 0.109375 0  0.5625 0.109375 0  0.578125 0.109375 0  0.59375 0.109375 0  0.609375 0.109375 0  0.625 0.109375 0  0.640625 0.109375 0  0.65625 0.109375 0  0.671875 0.109375 0  0.6875 0.109375 0  0.703125 0.109375 0  0.71875 0.109375 0  0.734375 0.109375 0  0.75 0.109375 0  0.765625 0.109375 0  0.78125 0.109375 0  0.796875 0.109375 0  0.8125 0.109375 0  0.828125 0.109375 0  0.84375 0.109375 0  0.859375 0.109375 0  0.875 0.109375 0  0.890625 0.109375 0  0.90625 0.109375 0  0.921875 0.109375 0  0.9375 0.109375 0  0.953125 0.109375 0  0.96875 0.109375 0  0.984375 0.109375 0  1 0.109375 0  0 0.125 0  0.015625 0.125 0  0.03125 0.125 0  0.046875 0.125 0  0.0625 0.125 0  0.078125 0.125 0  0.09375 0.125 0  0.109375 0.125 0  0.125 0.12
[...]
<PointData  Scalars="gamma"> 
<DataArray  type="Float64"  Name="gamma"  format="ascii">3.8221769065398250e+04  3.8108132967324709e+04  3.7996336118121471e+04  3.7886727510960147e+04  3.7779512701768166e+04  3.7674768377722939e+04  3.7572467367108693e+04  3.7472512218236312e+04  3.7374774655935900e+04  3.7279137591154518e+04  3.7185535980776927e+04  3.7093992760664449e+04  3.7004646329421943e+04  3.6917766637831308e+04  3.6833757801930471e+04  3.6753146239841961e+04  3.6676554544176004e+04  3.6604662540110556e+04  3.6538158138630861e+04  3.6477681578033058e+04  3.6423767375465075e+04  3.6376788728294523e+04  3.6336909182316813e+04  3.6304046114390949e+04  3.6277849975985351e+04  3.6257702343067998e+04  3.6242734662047827e+04  3.6231868228350293e+04  3.6223874453212273e+04  3.6217452948231134e+04  3.6211323482583488e+04  3.6204326552655140e+04  3.6195526261703308e+04  3.6184308547072280e+04  3.6170467605080848e+04  3.6154273706399013e+04  3.6136516478453173e+04  3.6118519112410446e+04  3.6102120731853043e+04  3.6089626193343749e+04  3.6083724701631916e+04  3.6087380634178626e+04  3.6103701719531280e+04  3.6135791080325973e+04  3.6186590566265018e+04  3.6258723253583397e+04  3.6354343011669793e+04  3.6474998701861950e+04  3.6621519953983334e+04  3.6793930626365618e+04  3.6991395030668806e+04  3.7212200797057048e+04  3.7453780846289723e+04  3.7712775293986160e+04  3.7985132227266178e+04  3.8266244196446030e+04  3.8551115046870305e+04  3.8834549537158702e+04  3.9111356264128684e+04  3.9376552982555848e+04  3.9625562697800829e+04  3.9854389091547338e+04  4.0059760989093920e+04  4.0239237643396787e+04  4.0391269424784412e+04  3.8222582890621110e+04  3.8108683483667788e+04  3.7995811849532052e+04  3.7884098633137954e+04  3.7773528965021324e+04  3.7663966958305245e+04  3.7555191595988348e+04  3.7446941607668821e+04  3.7338966023115936e+04  3.7231076400754180e+04  3.7123196340953727e+04  3.7015403863738939e+04  3.6907962584255540e+04  3.6801338346780707e+04  3.6696199030816613e+04  3.6593396537727662e+04  3.6493931393944018e+04  3.6398901843390668e+04  3.6309440624152441e+04  3.6226643722991605e+04  3.6151496191363454e+04  3.6084800533887988e+04  3.6027113222246233e+04  3.5978694549513886e+04  3.5939476348907767e+04  3.5909051098403659e+04  3.5886684669832830e+04  3.5871353516410854e+04  3.5861805493135544e+04  3.5856641848561172e+04  3.5854416307166830e+04  3.5853745687151459e+04  3.5853425288477047e+04  3.5852541461353023e+04  3.5850573433885809e+04  3.5847476716181460e+04  3.5843741235807684e+04  3.5840418765239272e+04  3.5839116081208471e+04  3.5841952497738814e+04  3.5851482749138777e+04  3.5870588463036242e+04  3.5902343468517953e+04  3.5949859783636763e+04  3.6016122231928275e+04  3.6103820225777155e+04  3.6215185359419622e+04  3.6351843148714928e+04  3.6514686624910995e+04  3.6703778610335146e+04  3.6918288419863144e+04  3.7156467450204997e+04  3.7415666615615264e+04  3.7692396828297467e+04  3.7982431685760588e+04  3.8280949242705610e+04  3.8582707306740340e+04  3.8882244276372221e+04  3.9174095372166543e+04  3.9453012467919805e+04  3.9714174867702706e+04  3.9953378494648990e+04  4.0167192149544535e+04  4.0353071717013918e+04  4.0509426259207619e+04  3.8236690236647322e+04  3.8123789820688842e+04  3.8011068320443417e+04  3.7898408434776218e+04  3.7785544452349866e+04  3.7672097882218535e+04  3.7557625556116829e+04  3.7441677206587323e+04  3.7323858505285811e+04  3.7203894790003360e+04  3.7081690308840385e+04  3.6957377830920152e+04  3.6831353943345530e+04  3.6704296257771479e+04  3.6577160024763689e+04  3.6451153196269115e+04  3.6327690651837984e+04  3.6208329964126293e+04  3.6094692578951108e+04  3.5988375500985385e+04  3.5890859417979183e+04  3.5803419614068764e+04  3.5727046005328797e+04  3.5662378199663741e+04  3.5609660681963534e+04  3.5568722109289316e+04  3.5538981328568247e+04  3.5519481160304676e+04  3.5508949288075266e+04  3.5505883825089339e+04  3.5508659380645884e+04  3.5515647824776570e+04  3.5525346570595982e+04  3.5536506192420406e+04  3.5548248699237520e+04  3.5560167887012038e+04  3.5572403951458451e+04  3.5585685942657139e+04  3.5601337599153623e+04  3.5621244458820482e+04  3.5647782702798249e+04  3.5683712720071657e+04  3.5732042666085596e+04  3.5795869152528525e+04  3.5878203534058797e+04  3.5981793011755108e+04  3.6108945980526296e+04  3.6261370785035651e+04  3.6440036412700152e+04  3.6645062730927093e+04  3.6875646724930666e+04  3.7130029825802412e+04  3.7405509812507400e+04  3.7698498886098780e+04  3.8004627324021625e+04  3.8318889649092293e+04  3.8635827588144704e+04  3.8949741431250775e+04  3.9254918990470913e+04  3.9545869496111693e+04  3.9817548749693568e+04  4.0065561902703783e+04  4.0286331458624016e+04  4.0477220462169644e+04  4.0636604146255049e+04  3.8261706004388259e+04  3.8151059307568117e+04  3.8039744945534148e+04  3.7927371605598812e+04  3.7813395060927782e+04  3.7697166028788241e+04  3.7577991750109541e+04  3.7455207635937739e+04  3.7328254179497795e+04  3.7196753496929938e+04  3.7060579442847134e+04  3.6919915324787216e+04  3.6775293844625950e+04  3.6627615002279410e+04  3.6478139228586428e+04  3.6328454841274579e+04  3.6180420876199416e+04  3.6036088256820127e+04  3.5897603957966843e+04  3.5767104155126603e+04  3.5646603232678397e+04  3.5537885910362529e+04  3.5442409642074825e+04  3.5361223887988985e+04  3.5294911925785957e+04  3.5243559622437519e+04  3.5206754103495638e+04  3.5183613592432259e+04  3.5172847902597008e+04  3.5172847205918668e+04  3.5181794846520090e+04  3.5197798207893189e+04  3.5219030099074276e+04  3.5243871938094293e+04  3.5271049323704785e+04  3.5299750523800161e+04  3.5329719050782864e+04  3.5361312852164585e+04  3.5395524649434097e+04  3.5433960459231217e+04  3.5478776112757987e+04  3.5532574401052552e+04  3.5598268065592893e+04  3.5678916014637551e+04  3.5777541732400088e+04  3.5896943799507848e+04  3.6039508777345574e+04  3.6207036503735748e+04  3.6400587210038175e+04  3.6620358902732311e+04  3.6865602226095223e+04  3.7134578560132766e+04  3.7424565389402262e+04  3.7731910961107096e+04  3.8052137903174487e+04  3.8380092811929208e+04  3.8710135941150191e+04  3.9036362220488380e+04  3.9352842176982798e+04  3.9653869254829289e+04  3.9934198848006585e+04  4.0189264333046347e+04  4.0415356644782194e+04  4.0609756441277350e+04  4.0770811446107262e+04  3.8294465680165427e+04  3.8187278430337356e+04  3.8078625073520430e+04  3.7967818948269996e+04  3.7854013450277176e+04  3.7736263045257598e+04  3.7613599460561134e+04  3.7485118685751600e+04  3.7350073115951360e+04  3.7207962238948741e+04  3.7058614824708304e+04  3.6902255713545012e+04  3.6739551052138180e+04  3.6571627164387275e+04  3.6400060068212370e+04  3.6226834801112425e+04  3.6054275996645105e+04  3.5884953346143331e+04  3.5721567484589330e+04  3.5566823297280454e+04  3.5423298554764260e+04  3.5293316113593341e+04  3.5178827696272674e+04  3.5081316556434482e+04  3.5001725238990643e+04  3.4940413255771491e+04  3.4897147896905226e+04  3.4871129648196373e+04  3.4861051829291377e+04  3.4865192145905618e+04  3.4881531912861312e+04  3.4907896830907324e+04  3.4942111501945350e+04  3.4982158489177542e+04  3.5026331832514021e+04  3.5073374668140852e+04  3.5122591087103276e+04  3.5173923644010662e+04  3.5227989946411399e+04  3.5286074376081240e+04  3.5350073992127043e+04  3.5422400768083520e+04  3.5505845237051690e+04  3.5603409110388529e+04  3.5718116316823754e+04  3.5852813091572105e+04  3.6009968232344676e+04  3.6191484507639376e+04  3.6398531569059240e+04  3.6631409702466655e+04  3.6889452440114845e+04  3.7170974484648432e+04  3.7473269553090409e+04  3.7792660592108965e+04  3.8124602308681198e+04  3.8463833114385438e+04  3.8804570492326886e+04  3.9140740660471507e+04  3.9466230515816133e+04  3.9775147551462775e+04  4.0062072095393669e+04  4.0322286109164335e+04  4.0551964056910205e+04  4.0748313981907952e+04  4.0909660690847952e+04  3.8331126994949220e+04  3.8228514654831713e+04  3.8123736486090456e+04  3.8015794997623496e+04  3.7903522191466225e+04  3.7785654431523653e+04  3.7660924197361026e+04  3.7528163592741388e+04  3.7386413006582508e+04  3.7235027272374246e+04  3.7073771190865926e+04  3.6902896476264330e+04  3.6723193099485921e+04  3.6536009594929616e+04  3.6343239048830430e+04  3.6147270004289712e+04  3.5950904158663689e+04  3.5757245235856630e+04  3.5569565553289278e+04  3.5391158389183933e+04  3.5225185184973932e+04  3.5074526868232679e+04  3.4941648206282101e+04  3.4828483205133183e+04  3.4736348282016814e+04  3.4665888387060048e+04  3.4617059529026337e+04  3.4589149334389826e+04  3.4580835370246430e+04  3.4590279006660508e+04  3.4615250607747766e+04  3.4653279877901346e+04  3.4701823349686274e+04  3.4758439429124868e+04  3.4820960290954943e+04  3.4887649423972500e+04  3.4957333915376548e+04  3.5029501714014972e+04  3.5104356108367712e+04  3.5182822369077883e+04  3.5266504710985100e+04  3.5357595129589361e+04  3.5458738941356343e+04  3.5572864712671500e+04  3.5702988476277525e+04  3.5852003584060461e+04  3.6022468214065957e+04  3.6216402509224492e+04  3.6435106700896074e+04  3.6679010498504860e+04  3.6947562615521725e+04  3.7239167607056232e+04  3.7551175213834707e+04  3.7879925102402376e+04  3.8220847222941084e+04  3.8568614980534658e+04  3.8917345125501706e+04  3.9260834914707681e+04  3.9592823983471637e+04  3.9907265869807212e+04  4.0198592628842263e+04  4.0461955776347990e+04  4.0693428077264914e+04  4.0890153428401456e+04  4.1050436048540600e+04  3.8367321814656607e+04  3.8270270589262778e+04  3.8170505840070742e+04  3.8066710611398252e+04  3.7957382285364292e+04  3.7840921724277548e+04  3.7715741293079729e+04  3.7580385842434138e+04  3.7433659056480719e+04  3.7274746372503330e+04  3.7103325140434739e+04  3.6919652935202183e+04  3.6724626014113870e+04  3.6519801779170521e+04  3.6307381615077138e+04  3.6090153395608373e+04  3.5871395993894279e+04  3.5654750989691078e+04  3.5444069161305939e+04  3.5243241073476616e+04  3.5056022013323563e+04  3.4885861676640117e+04  3.4735748449996303e+04  3.4608077016902382e+04  3.4504546510112690e+04  3.4426094696220338e+04  3.4372871831740507e+04  3.4344255937584814e+04  3.4338909318824444e+04  3.4354874198920392e+04  3.4389703334272512e+04  3.4440619450859922e+04  3.4504695380130535e+04  3.4579045009074471e+04  3.4661013793494545e+04  3.4748356828776487e+04  3.4839392522261602e+04  3.4933120891483035e+04  3.5029297443521886e+04  3.5128456367809238e+04  3.5231880172404206e+04  3.5341516595697918e+04  3.5459847273484906e+04  3.5589715893720451e+04  3.5734126156704260e+04  3.5896021613235331e+04  3.6078060334033420e+04  3.6282397433078964e+04  3.6510487858287619e+04  3.6762920730636935e+04  3.7039294990009839e+04  3.7338144270573743e+04  3.7656916795271325e+04  3.7992013616546174e+04  3.8338885699307226e+04  3.8692187143837131e+04  3.9045978368797369e+04  3.9393969519490995e+04  3.9729791048080668e+04  4.0047275721507984e+04  4.0340734653364219e+04  4.0605209664676928e+04  4.0836685547276327e+04  4.1032248622792526e+04  4.1190182130765410e+04  3.8398354130150132e+04  3.8307686477419411e+04  3.8213963222224047e+04  3.8115546929530610e+04  3.8010593715741939e+04  3.7897156747664500e+04  3.7773310939834810e+04  3.7637292134946401e+04  3.7487642139820477e+04  3.7323349616632608e+04  3.7143976205980034e+04  3.6949757537110796e+04  3.6741670023031824e+04  3.6521456492816273e+04  3.6291606609601571e+04  3.6055291385615288e+04  3.5816254591273260e+04  3.5578667101492349e+04  3.5346952903310405e+04  3.5125597365468209e+04  3.4918949322389912e+04  3.4731028559280268e+04  3.4565349520575248e+04  3.4424770694257757e+04  3.4311377370035130e+04  3.4226403530041302e+04  3.4170196650025544e+04  3.4142227237048653e+04  3.4141143008607134e+04  3.4164865686855446e+04  3.4210726393685560e+04  3.4275633575890446e+04  3.4356265318844467e+04  3.4449275957066835e+04  3.4551505267816683e+04  3.4660177487439767e+04  3.4773077159836590e+04  3.4888689589683039e+04  3.5006295495981096e+04  3.5126012269016705e+04  3.5248777807378166e+04  3.5376276917291427e+04  3.5510814297133045e+04  3.5655141811523121e+04  3.5812250755001398e+04  3.5985141902998155e+04  3.6176587271278797e+04  3.6388897703521252e+04  3.6623709818631061e+04  3.6881804650555896e+04  3.7162968664018685e+04  3.7465905835490397e+04  3.7788207186277992e+04  3.8126381524422184e+04  3.8475948157109364e+04  3.8831588972658144e+04  3.9187353642603543e+04  3.9536907958985968e+04  3.9873811818168077e+04  4.0191810494678270e+04  4.0485121041224622e+04  4.0748695264416725e+04  4.0978441972278648e+04  4.1171394071994800e+04  4.1325810384062439e+04  3.8419436190284781e+04  3.8335783047000594e+04  3.8248988928362880e+04  3.8157103006331963e+04  3.8057940635670333e+04  3.7949200917724425e+04  3.7828608129652363e+04  3.7694069527499923e+04  3.7543839851387689e+04  3.7376681277656244e+04  3.7192006823379103e+04  3.6989995496026597e+04  3.6771668873725685e+04  3.6538921245122474e+04  3.6294498736665373e+04  3.6041926689113330e+04  3.5785388511530611e+04  3.5529562914845177e+04  3.5279429427767507e+04  3.5040054149459567e+04  3.4816368663654917e+04  3.4612954950240717e+04  3.4433848139256203e+04  3.4282367304601510e+04  3.4160982466258189e+04  3.4071223807416172e+04  3.4013636989435130e+04  3.3987786439915661e+04  3.3992306583368743e+04  3.4024999104899376e+04  3.4082972394560944e+04  3.4162817258417861e+04  3.4260810824058841e+04  3.4373138435397137e+04  3.4496121441841242e+04  3.4626437421797447e+04  3.4761318830934513e+04  3.4898716567175718e+04  3.5037416616322735e+04  3.5177100746586475e+04  3.5318345951406620e+04  3.5462561648998286e+04  3.5611868097530089e+04  3.5768923626332282e+04  3.5936711727303315e+04  3.6118301529185614e+04  3.6316596574641895e+04  3.6534087167168153e+04  3.6772620993954253e+04  3.7033205458825214e+04  3.7315853367992568e+04  3.7619481439221105e+04  3.7941868615797175e+04  3.8279678357858793e+04  3.8628545923640995e+04  3.8983228135646939e+04  3.9337809325666756e+04  3.9685953260506038e+04  4.0021187185377639e+04  4.0337201096623226e+04  4.0628143410420227e+04  4.0888893710435645e+04  4.1115294467474669e+04  4.1304326544356045e+04  4.1454217701863548e+04  3.8425951027392468e+04  3.8349732764581291e+04  3.8270590476246187e+04  3.8186275246806210e+04  3.8094269606614413e+04  3.7991918471523495e+04  3.7876586975971506e+04  3.7745836980650725e+04  3.7597611556452146e+04  3.7430414914739049e+04  3.7243474359278342e+04  3.7036871096484232e+04  3.6811628258826000e+04  3.6569747218401339e+04  3.6314186975173929e+04  3.6048785731079457e+04  3.5778128241701226e+04  3.5507366677732185e+04  3.5242006086620902e+04  3.4987667801387390e+04  3.4749845150142421e+04  3.4533665611915538e+04  3.4343672337861673e+04  3.4183636013699776e+04  3.4056405715959321e+04  3.3963805010976088e+04  3.3906577268749352e+04  3.3884382100354924e+04  3.3895842948111851e+04  3.3938644050752788e+04  3.4009673132929529e+04  3.4105204125533412e+04  3.4221111994675717e+04  3.4353109446963586e+04  3.4496993112411954e+04  3.4648885098840925e+04  3.4805454907454419e+04  3.4964106897416219e+04  3.5123119967349608e+04  3.5281728890226375e+04  3.5440140608015099e+04  3.5599483403365033e+04  3.5761691741250543e+04  3.5929334203682309e+04  3.6105395868698528e+04  3.6293029380631102e+04  3.6495290659814338e+04  3.6714875714503032e+04  3.6953874489436588e+04  3.7213556333273511e+04  3.7494199717452531e+04  3.7794976468768597e+04  3.8113898083663153e+04  3.8447828693344993e+04  3.8792565922665628e+04  3.9142987223322045e+04  3.9493255328155778e+04  3.9837072450476786e+04  4.0167969053028406e+04  4.0479609850440596e+04  4.0766097638713647e+04  4.1022254964034320e+04  4.1243864802708151e+04  4.1427854355770942e+04  4.1572410544763748e+04  3.8413726266027064e+04  3.8345143988934993e+04  3.8274194143268542e+04  3.8198352953601963e+04  3.8114785439154643e+04  3.8020488642103141e+04  3.7912465133805053e+04  3.7787917932580778e+04  3.7644455159404410e+04  3.7480290639291467e+04  3.7294425561718432e+04  3.7086796504477607e+04  3.6858376731770608e+04  3.6611220653619799e+04  3.6348445442308082e+04  3.6074148631447300e+04  3.5793265544143651e+04  3.5511375041119623e+04  3.5234465836503499e+04  3.4968678128695166e+04  3.4720036365591259e+04  3.4494188652800076e+04  3.4296166854799245e+04  3.4130179192606847e+04  3.3999444509216628e+04  3.3906074713553047e+04  3.3851009471491452e+04  3.3834005088562488e+04  3.3853677679895802e+04  3.3907599000434711e+04  3.3992441522961439e+04  3.4104167345815498e+04  3.4238253227394038e+04  3.4389941562287881e+04  3.4554504664321088e+04  3.4727507652364715e+04  3.4905053945683452e+04  3.5083997233673144e+04  3.5262105036478184e+04  3.5438161675630705e+04  3.5612002464680780e+04  3.5784475840112005e+04  3.5957335466849443e+04  3.6133069497376120e+04  3.6314678608998169e+04  3.6505417790541243e+04  3.6708518882736702e+04  3.6926911575972568e+04  3.7162960077879710e+04  3.7418231223183713e+04  3.7693307673864379e+04  3.7987657268965719e+04  3.8299566665584207e+04  3.8626144212082640e+04  3.8963393501049628e+04  3.9306355252766116e+04  3.9649311133994175e+04  3.9986038990367546e+04  4.0310105065308897e+04  4.0615175506008563e+04  4.0895327275587348e+04  4.1145337912769464e+04  4.1360934675910052e+04  4.1538986525326487e+04  4.1677626925661134e+04  3.8379301632352835e+04  3.8318339842692229e+04  3.8255932477460206e+04  3.8189311315060324e+04  3.8115346120670649e+04  3.8030698702247086e+04  3.7932010961042150e+04  3.7816117532929631e+04  3.7680270457766332e+04  3.7522360870780954e+04  3.7341121367628213e+04  3.7136292762866557e+04  3.6908740606434250e+04  3.6660510013759042e+04  3.6394811852143706e+04  3.6115938656366096e+04  3.5829114224770477e+04  3.5540286028770890e+04  3.5255873767571356e+04  3.4982490188452786e+04  3.4726651470998768e+04  3.4494494090633176e+04  3.4291513403150188e+04  3.4122336646425116e+04  3.3990540107872861e+04  3.3898517276708553e+04  3.3847402179341734e+04  3.3837049901999941e+04  3.3866074482376192e+04  3.3931942717255661e+04  3.4031120743911029e+04  3.4159268296108006e+04  3.4311473204675793e+04  3.4482516062809933e+04  3.4667152239074218e+04  3.4860395975263113e+04  3.5057789608504165e+04  3.5255640445426252e+04  3.5451208808845768e+04  3.5642833388450883e+04  3.5829984122797956e+04  3.6013238046758444e+04  3.6194179301538104e+04  3.6375230185466789e+04  3.6559425115166974e+04  3.6750143193653428e+04  3.6950817470913666e+04  3.7164639881511604e+04  3.7394280392810142e+04  3.7641637361544301e+04  3.7907633781188561e+04  3.8192071275742608e+04  3.8493550536377632e+04  3.8809463484211126e+04  3.9136058780695108e+04  3.9468578386437635e+04  3.9801458731907580e+04  4.0128585860707768e+04  4.0443589923815147e+04  4.0740161044191605e+04  4.1012366294289270e+04  4.1254946757175130e+04  4.1463574661598366e+04  4.1635053458499147e+04  4.1767448244109786e+04  3.8320171419154001e+04  3.8266612295383740e+04  3.8212907744688986e+04  3.8156081533963246e+04  3.8092736560504360e+04  3.8019217949861508e+04  3.7931814152440675e+04  3.7826986234826843e+04  3.7701612034101090e+04  3.7553229041142826e+04  3.7380258239123723e+04  3.7182191009368835e+04  3.6959722838977556e+04  3.6714820916515491e+04  3.6450717528828442e+04  3.6171826985204709e+04  3.5883589936748831e+04  3.5592254705114945e+04  3.5304609919221199e+04  3.5027685887910709e+04  3.4768443472549996e+04  3.4533468812476000e+04  3.4328690399020641e+04  3.4159132165916461e+04  3.4028713003723620e+04  3.3940099899544672e+04  3.3894619090285873e+04  3.3892227338333309e+04  3.3931543631067922e+04  3.4009940051933350e+04  3.4123688977197060e+04  3.4268161847992320e+04  3.4438072395542062e+04  3.4627754383585787e+04  3.4831460905679705e+04  3.5043669444330240e+04  3.5259374776841767e+04  3.5474350910644062e+04  3.5685363941817028e+04  3.5890320229908080e+04  3.6088338469804476e+04  3.6279739741358142e+04  3.6465955836678295e+04  3.6649362398884346e+04  3.6833048965487964e+04  3.7020542339691034e+04  3.7215502476901434e+04  3.7421411183497963e+04  3.7641273515531131e+04  3.787735012519895