<?xml version="1.0"?>
<VTKFile type="UnstructuredGrid"  version="0.1"  >
<UnstructuredGrid>
<Piece  NumberOfPoints="4225" NumberOfCells="8192">
<Points>
<DataArray  type="Float64"  NumberOfComponents="3"  format="ascii">0 0 0  0.015625 0 0  0.03125 0 0  0.046875 0 0  0.0625 0 0  0.078125 0 0  0.09375 0 0  0.109375 0 0  0.125 0 0  0.140625 0 0  0.15625 0 0  0.171875 0 0  0.1875 0 0  0.203125 0 0  0.21875 0 0  0.234375 0 0  0.25 0 0  0.265625 0 0  0.28125 0 0  0.296875 0 0  0.3125 0 0  0.328125 0 0  0.34375 0 0  0.359375 0 0  0.375 0 0  0.390625 0 0  0.40625 0 0  0.421875 0 0  0.4375 0 0  0.453125 0 0  0.46875 0 0  0.484375 0 0  0.5 0 0  0.515625 0 0  0.53125 0 0  0.546875 0 0  0.5625 0 0  0.578125 0 0  0.59375 0 0  0.609375 0 0  0.625 0 0  0.640625 0 0  0.65625 0 0  0.671875 0 0  0.6875 0 0  0.703125 0 0  0.71875 0 0  0.734375 0 0  0.75 0 0  0.765625 0 0  0.78125 0 0  0.796875 0 0  0.8125 0 0  0.828125 0 0  0.84375 0 0  0.859375 0 0  0.875 0 0  0.890625 0 0  0.90625 0 0  0.921875 0 0  0.9375 0 0  0.953125 0 0  0.96875 0 0  0.984375 0 0  1 0 0  0 0.015625 0  0.015625 0.015625 0  0.03125 0.015625 0  0.046875 0.015625 0  0.0625 0.015625 0  0.078125 0.015625 0  0.09375 0.015625 0  0.109375 0.015625 0  0.125 0.015625 0  0.140625 0.015625 0  0.15625 0.015625 0  0.171875 0.015625 0  0.1875 0.015625 0  0.203125 0.015625 0  0.21875 0.015625 0  0.234375 0.015625 0  0.25 0.015625 0  0.265625 0.015625 0  0.28125 0.015625 0  0.296875 0.015625 0  0.3125 0.015625 0  0.328125 0.015625 0  0.34375 0.015625 0  0.359375 0.015625 0  0.375 0.015625 0  0.390625 0.015625 0  0.40625 0.015625 0  0.421875 0.015625 0  0.4375 0.015625 0  0.453125 0.015625 0  0.46875 0.015625 0  0.484375 0.015625 0  0.5 0.015625 0  0.515625 0.015625 0  0.53125 0.015625 0  0.546875 0.015625 0  0.5625 0.015625 0  0.578125 0.015625 0  0.59375 0.015625 0  0.609375 0.015625 0  0.625 0.015625 0  0.640625 0.015625 0  0.65625 0.015625 0  0.671875 0.015625 0  0.6875 0.015625 0  0.703125 0.015625 0  0.71875 0.015625 0  0.734375 0.015625 0  0.75 0.015625 0  0.765625 0.015625 0  0.78125 0.015625 0  0.796875 0.015625 0  0.8125 0.015625 0  0.828125 0.015625 0  0.84375 0.015625 0  0.859375 0.015625 0  0.875 0.015625 0  0.890625 0.015625 0  0.90625 0.015625 0  0.921875 0.015625 0  0.9375 0.015625 0  0.953125 0.015625 0  0.96875 0.015625 0  0.984375 0.015625 0  1 0.015625 0  0 0.03125 0  0.015625 0.03125 0  0.03125 0.03125 0  0.046875 0.03125 0  0.0625 0.03125 0  0.078125 0.03125 0  0.09375 0.03125 0  0.109375 0.03125 0  0.125 0.03125 0  0.140625 0.03125 0  0.15625 0.03125 0  0.171875 0.03125 0  0.1875 0.03125 0  0.203125 0.03125 0  0.21875 0.03125 0  0.234375 0.03125 0  0.25 0.03125 0  0.265625 0.03125 0  0.28125 0.03125 0  0.296875 0.03125 0  0.3125 0.03125 0  0.328125 0.03125 0  0.34375 0.03125 0  0.359375 0.03125 0  0.375 0.03125 0  0.390625 0.03125 0  0.40625 0.03125 0  0.421875 0.03125 0  0.4375 0.03125 0  0.453125 0.03125 0  0.46875 0.03125 0  0.484375 0.03125 0  0.5 0.03125 0  0.515625 0.03125 0  0.53125 0.03125 0  0.546875 0.03125 0  0.5625 0.03125 0  0.578125 0.03125 0  0.59375 0.03125 0  0.609375 0.03125 0  0.625 0.03125 0  0.640625 0.03125 0  0.65625 0.03125 0  0.671875 0.03125 0  0.6875 0.03125 0  0.703125 0.03125 0  0.71875 0.03125 0  0.734375 0.03125 0  0.75 0.03125 0  0.765625 0.03125 0  0.78125 0.03125 0  0.796875 0.03125 0  0.8125 0.03125 0  0.828125 0.03125 0  0.84375 0.03125 0  0.859375 0.03125 0  0.875 0.03125 0  0.890625 0.03125 0  0.90625 0.03125 0  0.921875 0.03125 0  0.9375 0.03125 0  0.953125 0.03125 0  0.96875 0.03125 0  0.984375 0.03125 0  1 0.03125 0  0 0.046875 0  0.015625 0.046875 0  0.03125 0.046875 0  0.046875 0.046875 0  0.0625 0.046875 0  0.078125 0.046875 0  0.09375 0.046875 0  0.109375 0.046875 0  0.125 0.046875 0  0.140625 0.046875 0  0.15625 0.046875 0  0.171875 0.046875 0  0.1875 0.046875 0  0.203125 0.046875 0  0.21875 0.046875 0  0.234375 0.046875 0  0.25 0.046875 0  0.265625 0.046875 0  0.28125 0.046875 0  0.296875 0.046875 0  0.3125 0.046875 0  0.328125 0.046875 0  0.34375 0.046875 0  0.359375 0.046875 0  0.375 0.046875 0  0.390625 0.046875 0  0.40625 0.046875 0  0.421875 0.046875 0  0.4375 0.046875 0  0.453125 0.046875 0  0.46875 0.046875 0  0.484375 0.046875 0  0.5 0.046875 0  0.515625 0.046875 0  0.53125 0.046875 0  0.546875 0.046875 0  0.5625 0.046875 0  0.578125 0.046875 0  0.59375 0.046875 0  0.609375 0.046875 0  0.625 0.046875 0  0.640625 0.046875 0  0.65625 0.046875 0  0.671875 0.046875 0  0.6875 0.046875 0  0.703125 0.046875 0  0.71875 0.046875 0  0.734375 0.046875 0  0.75 0.046875 0  0.765625 0.046875 0  0.78125 0.046875 0  0.796875 0.046875 0  0.8125 0.046875 0  0.828125 0.046875 0  0.84375 0.046875 0  0.859375 0.046875 0  0.875 0.046875 0  0.890625 0.046875 0  0.90625 0.046875 0  0.921875 0.046875 0  0.9375 0.046875 0  0.953125 0.046875 0  0.96875 0.046875 0  0.984375 0.046875 0  1 0.046875 0  0 0.0625 0  0.015625 0.0625 0  0.03125 0.0625 0  0.046875 0.0625 0  0.0625 0.0625 0  0.078125 0.0625 0  0.09375 0.0625 0  0.109375 0.0625 0  0.125 0.0625 0  0.140625 0.0625 0  0.15625 0.0625 0  0.171875 0.0625 0  0.1875 0.0625 0  0.203125 0.0625 0  0.21875 0.0625 0  0.234375 0.0625 0  0.25 0.0625 0  0.265625 0.0625 0  0.28125 0.0625 0  0.296875 0.0625 0  0.3125 0.0625 0  0.328125 0.0625 0  0.34375 0.0625 0  0.359375 0.0625 0  0.375 0.0625 0  0.390625 0.0625 0  0.40625 0.0625 0  0.421875 0.0625 0  0.4375 0.0625 0  0.453125 0.0625 0  0.46875 0.0625 0  0.484375 0.0625 0  0.5 0.0625 0  0.515625 0.0625 0  0.53125 0.0625 0  0.546875 0.0625 0  0.5625 0.0625 0  0.578125 0.0625 0  0.59375 0.0625 0  0.609375 0.0625 0  0.625 0.0625 0  0.640625 0.0625 0  0.65625 0.0625 0  0.671875 0.0625 0  0.6875 0.0625 0  0.703125 0.0625 0  0.71875 0.0625 0  0.734375 0.0625 0  0.75 0.0625 0  0.765625 0.0625 0  0.78125 0.0625 0  0.796875 0.0625 0  0.8125 0.0625 0  0.828125 0.0625 0  0.84375 0.0625 0  0.859375 0.0625 0  0.875 0.0625 0  0.890625 0.0625 0  0.90625 0.0625 0  0.921875 0.0625 0  0.9375 0.0625 0  0.953125 0.0625 0  0.96875 0.0625 0  0.984375 0.0625 0  1 0.0625 0  0 0.078125 0  0.015625 0.078125 0  0.03125 0.078125 0  0.046875 0.078125 0  0.0625 0.078125 0  0.078125 0.078125 0  0.09375 0.078125 0  0.109375 0.078125 0  0.125 0.078125 0  0.140625 0.078125 0  0.15625 0.078125 0  0.171875 0.078125 0  0.1875 0.078125 0  0.203125 0.078125 0  0.21875 0.078125 0  0.234375 0.078125 0  0.25 0.078125 0  0.265625 0.078125 0  0.28125 0.078125 0  0.296875 0.078125 0  0.3125 0.078125 0  0.328125 0.078125 0  0.34375 0.078125 0  0.359375 0.078125 0  0.375 0.078125 0  0.390625 0.078125 0  0.40625 0.078125 0  0.421875 0.078125 0  0.4375 0.078125 0  0.453125 0.078125 0  0.46875 0.078125 0  0.484375 0.078125 0  0.5 0.078125 0  0.515625 0.078125 0  0.53125 0.078125 0  0.546875 0.078125 0  0.5625 0.078125 0  0.578125 0.078125 0  0.59375 0.078125 0  0.609375 0.078125 0  0.625 0.078125 0  0.640625 0.078125 0  0.65625 0.078125 0  0.671875 0.078125 0  0.6875 0.078125 0  0.703125 0.078125 0  0.71875 0.078125 0  0.734375 0.078125 0  0.75 0.078125 0  0.765625 0.078125 0  0.78125 0.078125 0  0.796875 0.078125 0  0.8125 0.078125 0  0.828125 0.078125 0  0.84375 0.078125 0  0.859375 0.078125 0  0.875 0.078125 0  0.890625 0.078125 0  0.90625 0.078125 0  0.921875 0.078125 0  0.9375 0.078125 0  0.953125 0.078125 0  0.96875 0.078125 0  0.984375 0.078125 0  1 0.078125 0  0 0.09375 0  0.015625 0.09375 0  0.03125 0.09375 0  0.046875 0.09375 0  0.0625 0.09375 0  0.078125 0.09375 0  0.09375 0.09375 0  0.109375 0.09375 0  0.125 0.09375 0  0.140625 0.09375 0  0.15625 0.09375 0  0.171875 0.09375 0  0.1875 0.09375 0  0.203125 0.09375 0  0.21875 0.09375 0  0.234375 0.09375 0  0.25 0.09375 0  0.265625 0.09375 0  0.28125 0.09375 0  0.296875 0.09375 0  0.3125 0.09375 0  0.328125 0.09375 0  0.34375 0.09375 0  0.359375 0.09375 0  0.375 0.09375 0  0.390625 0.09375 0  0.40625 0.09375 0  0.421875 0.09375 0  0.4375 0.09375 0  0.453125 0.09375 0  0.46875 0.09375 0  0.484375 0.09375 0  0.5 0.09375 0  0.515625 0.09375 0  0.53125 0.09375 0  0.546875 0.09375 0  0.5625 0.09375 0  0.578125 0.09375 0  0.59375 0.09375 0  0.609375 0.09375 0  0.625 0.09375 0  0.640625 0.09375 0  0.65625 0.09375 0  0.671875 0.09375 0  0.6875 0.09375 0  0.703125 0.09375 0  0.71875 0.09375 0  0.734375 0.09375 0  0.75 0.09375 0  0.765625 0.09375 0  0.78125 0.09375 0  0.796875 0.09375 0  0.8125 0.09375 0  0.828125 0.09375 0  0.84375 0.09375 0  0.859375 0.09375 0  0.875 0.09375 0  0.890625 0.09375 0  0.90625 0.09375 0  0.921875 0.09375 0  0.9375 0.09375 0  0.953125 0.09375 0  0.96875 0.09375 0  0.984375 0.09375 0  1 0.09375 0  0 0.109375 0  0.015625 0.109375 0  0.03125 0.109375 0  0.046875 0.109375 0  0.0625 0.109375 0  0.078125 0.109375 0  0.09375 0.109375 0  0.109375 0.109375 0  0.125 0.109375 0  0.140625 0.109375 0  0.15625 0.109375 0  0.171875 0.109375 0  0.1875 0.109375 0  0.203125 0.109375 0  0.21875 0.109375 0  0.234375 0.109375 0  0.25 0.109375 0  0.265625 0.109375 0  0.28125 0.109375 0  0.296875 0.109375 0  0.3125 0.109375 0  0.328125 0.109375 0  0.34375 0.109375 0  0.359375 0.109375 0  0.375 0.109375 0  0.390625 0.109375 0  0.40625 0.109375 0  0.421875 0.109375 0  0.4375 0.109375 0  0.453125 0.109375 0  0.46875 0.109375 0  0.484375 0.109375 0  0.5 0.109375 0  0.515625 0.109375 0  0.53125 0.109375 0  0.546875 0.109375 0  0.5625 0.109375 0  0.578125 0.109375 0  0.59375 0.109375 0  0.609375 0.109375 0  0.625 0.109375 0  0.640625 0.109375 0  0.65625 0.109375 0  0.671875 0.109375 0  0.6875 0.109375 0  0.703125 0.109375 0  0.71875 0.109375 0  0.734375 0.109375 0  0.75 0.109375 0  0.765625 0.109375 0  0.78125 0.109375 0  0.796875 0.109375 0  0.8125 0.109375 0  0.828125 0.109375 0  0.84375 0.109375 0  0.859375 0.109375 0  0.875 0.109375 0  0.890625 0.109375 0  0.90625 0.109375 0  0.921875 0.109375 0  0.9375 0.109375 0  0.953125 0.109375 0  0.96875 0.109375 0  0.984375 0.109375 0  1 0.109375 0  0 0.125 0  0.015625 0.125 0  0.03125 0.125 0  0.046875 0.125 0  0.0625 0.125 0  0.078125 0.125 0  0.09375 0.125 0  0.109375 0.125 0  0.125 0.12
[...]
<PointData  Scalars="gamma"> 
<DataArray  type="Float64"  Name="gamma"  format="ascii">5.1656480540544348e+04  5.2380421702079489e+04  5.3060188172149996e+04  5.3688893379568319e+04  5.4261348231396019e+04  5.4774179184997498e+04  5.5225821666268654e+04  5.5616389818086907e+04  5.5947435338923184e+04  5.6221618672105367e+04  5.6442323840720164e+04  5.6613252986516964e+04  5.6738037818974910e+04  5.6819902809614767e+04  5.6861409522146991e+04  5.6864303618242913e+04  5.6829476589283513e+04  5.6757043920070544e+04  5.6646530953458408e+04  5.6497147935579473e+04  5.6308127309440693e+04  5.6079090002520592e+04  5.5810403871257098e+04  5.5503497121322587e+04  5.5161092653762389e+04  5.4787335763193187e+04  5.4387796883245268e+04  5.3969342187354945e+04  5.3539876580810735e+04  5.3107974646400020e+04  5.2682424256455648e+04  5.2271714014661520e+04  5.1883499103250419e+04  5.1524080655071499e+04  5.1197932025249065e+04  5.0907302097798718e+04  5.0651921793669382e+04  5.0428835758155437e+04  5.0232376904801233e+04  5.0054296760130550e+04  4.9884058756219987e+04  4.9709294045195988e+04  4.9516409575417129e+04  4.9291326111431525e+04  4.9020310368432991e+04  4.8690852009872848e+04  4.8292525071368480e+04  4.7817766801803380e+04  4.7262507042116617e+04  4.6626589347783243e+04  4.5913941087466010e+04  4.5132472242090771e+04  4.4293708781076595e+04  4.3412192628952900e+04  4.2504702501670181e+04  4.1589365028527260e+04  4.0684731581797125e+04  3.9808892754043249e+04  3.8978690750604896e+04  3.8209072699865530e+04  3.7512608305054018e+04  3.6899176610925875e+04  3.6375811512169581e+04  3.5946685490686606e+04  3.5613206250991054e+04  5.1847578978427329e+04  5.2568627163478195e+04  5.3243484129991979e+04  5.3865600226687442e+04  5.4430242555930512e+04  5.4934592668872370e+04  5.5377710706055077e+04  5.5760368848973463e+04  5.6084769419179203e+04  5.6354173877886504e+04  5.6572477122072007e+04  5.6743766061243594e+04  5.6871902210196960e+04  5.6960165123552928e+04  5.7010987447222396e+04  5.7025803887971138e+04  5.7005026292834213e+04  5.6948146063771404e+04  5.6853954056770453e+04  5.6720857663883762e+04  5.6547265703656332e+04  5.6332004821173221e+04  5.6074727063350168e+04  5.5776267750923100e+04  5.5438916041737335e+04  5.5066567586702426e+04  5.4664738849923000e+04  5.4240434959219871e+04  5.3801875993134796e+04  5.3358098896725700e+04  5.2918462399863754e+04  5.2492089432666879e+04  5.2087285196139950e+04  5.1710969446792253e+04  5.1368159369491186e+04  5.1061535578729061e+04  5.0791119216114166e+04  5.0554083422612079e+04  5.0344717812662224e+04  5.0154559616286286e+04  4.9972699158891905e+04  4.9786259476346284e+04  4.9581039506904111e+04  4.9342297430167790e+04  4.9055636126588186e+04  4.8707938079463987e+04  4.8288284704867292e+04  4.7788787726265415e+04  4.7205260162972903e+04  4.6537663208395759e+04  4.5790282752320636e+04  4.4971613928432256e+04  4.4093960725170757e+04  4.3172786284657959e+04  4.2225873734098743e+04  4.1272373628981135e+04  4.0331820146660400e+04  3.9423193718662798e+04  3.8564094357316397e+04  3.7770070490297454e+04  3.7054126372195300e+04  3.6426410720628170e+04  3.5894072960161626e+04  3.5461262948538548e+04  3.5129245557206857e+04  5.1904022224446577e+04  5.2611819143929075e+04  5.3271734790293136e+04  5.3877706717936766e+04  5.4425597605870382e+04  5.4913267122737954e+04  5.5340502412945803e+04  5.5708812272515221e+04  5.6021103089870587e+04  5.6281265780520298e+04  5.6493711026876335e+04  5.6662894413535607e+04  5.6792873323744912e+04  5.6886933999754445e+04  5.6947320559550120e+04  5.6975088760563485e+04  5.6970096694893553e+04  5.6931133139818747e+04  5.6856172681345139e+04  5.6742735690315400e+04  5.6588321526136395e+04  5.6390875802730225e+04  5.6149248013844001e+04  5.5863595001643240e+04  5.5535689096467184e+04  5.5169097235669324e+04  5.4769208408443614e+04  5.4343100246902897e+04  5.3899249958347704e+04  5.3447108378678771e+04  5.2996567181681778e+04  5.2557357103083508e+04  5.2138418966532889e+04  5.1747289546307082e+04  5.1389541645629717e+04  5.1068313294466578e+04  5.0783955744786224e+04  5.0533824709164270e+04  5.0312234263108941e+04  5.0110587644653315e+04  4.9917693020538441e+04  4.9720264175371492e+04  4.9503595281657945e+04  4.9252385313702100e+04  4.8951672076088253e+04  4.8587820013866374e+04  4.8149492539278959e+04  4.7628531470936075e+04  4.7020665950231400e+04  4.6325982489575428e+04  4.5549106669698827e+04  4.4699073673989835e+04  4.3788895900395342e+04  4.2834866809730804e+04  4.1855666223825196e+04  4.0871349512065390e+04  3.9902309131849775e+04  3.8968291518967875e+04  3.8087537123284485e+04  3.7276089805368552e+04  3.6547297982706899e+04  3.5911507837173776e+04  3.5375931645062883e+04  3.4944663541900722e+04  3.4618810955890454e+04  5.1821739920929336e+04  5.2506037286974446e+04  5.3141152896361040e+04  5.3721654171993592e+04  5.4244127048497343e+04  5.4707216996137686e+04  5.5111522251370421e+04  5.5459346794615740e+04  5.5754333966615421e+04  5.6001012806331346e+04  5.6204297037630451e+04  5.6368980473288218e+04  5.6499272341765798e+04  5.6598412034573223e+04  5.6668395676223023e+04  5.6709837511431542e+04  5.6721978149340568e+04  5.6702839897491140e+04  5.6649517408192864e+04  5.6558580321099711e+04  5.6426554289501204e+04  5.6250438614005339e+04  5.6028213622317970e+04  5.5759289781461317e+04  5.5444853865301971e+04  5.5088075382739626e+04  5.4694148327854906e+04  5.4270157938202268e+04  5.3824777853857711e+04  5.3367817968516763e+04  5.2909655615233554e+04  5.2460591277791857e+04  5.2030174221892572e+04  5.1626543529245449e+04  5.1255826868447082e+04  5.0921634186561969e+04  5.0624677587260507e+04  5.0362542852408471e+04  5.0129632644517929e+04  4.9917296017176523e+04  4.9714152558559144e+04  4.9506611198708277e+04  4.9279572556195417e+04  4.9017289486622991e+04  4.8704344020807926e+04  4.8326682032155128e+04  4.7872632530965748e+04  4.7333829625766768e+04  4.6705954783555106e+04  4.5989226849515879e+04  4.5188587440072646e+04  4.4313557901286695e+04  4.3377777306901786e+04  4.2398264042479132e+04  4.1394471242140848e+04  4.0387224419693783e+04  3.9397635538039307e+04  3.8446081240056432e+04  3.7551316028863374e+04  3.6729767561531888e+04  3.5995035450419375e+04  3.5357591397966491e+04  3.4824660418301988e+04  3.4400252050829280e+04  3.4085306919212271e+04  5.1600936995099415e+04  5.2252001950680293e+04  5.2853034326123336e+04  5.3399359719104417e+04  5.3888396661844206e+04  5.4319662532858965e+04  5.4694626972274804e+04  5.5016423006357800e+04  5.5289439566404893e+04  5.5518830105680376e+04  5.5709979449286722e+04  5.5867974300756119e+04  5.5997121987260303e+04  5.6100557508100806e+04  5.6179971469399905e+04  5.6235481819658358e+04  5.6265661162149263e+04  5.6267719427529082e+04  5.6237829411283579e+04  5.6171570736463160e+04  5.6064456962157965e+04  5.5912501772558775e+04  5.5712774511287309e+04  5.5463893768885726e+04  5.5166410981500565e+04  5.4823044204528400e+04  5.4438734829389134e+04  5.4020515736977504e+04  5.3577196388145705e+04  5.3118886550114607e+04  5.2656393804035346e+04  5.2200539255649266e+04  5.1761440352271929e+04  5.1347809636740101e+04  5.0966314615458294e+04  5.0621038074058488e+04  5.0313071540893150e+04  5.0040268191147094e+04  4.9797175658028689e+04  4.9575163587637631e+04  4.9362754362239153e+04  4.9146156997834791e+04  4.8909992797691018e+04  4.8638186625912349e+04  4.8314980438607046e+04  4.7926007948850187e+04  4.7459353964475602e+04  4.6906512437830032e+04  4.6263156702925386e+04  4.5529645698433822e+04  4.4711211305920515e+04  4.3817802245082130e+04  4.2863595264599760e+04  4.1866219362576332e+04  4.0845767940869133e+04  3.9823692553452427e+04  3.8821677586982951e+04  3.7860587624934138e+04  3.6959560647101745e+04  3.6135294690835930e+04  3.5401548077434025e+04  3.4768848453415449e+04  3.4244387192150643e+04  3.3832064903414015e+04  3.3532650866722055e+04  5.1245968312421748e+04  5.1854959374040707e+04  5.2413571050527549e+04  5.2917995105664326e+04  5.3366568059585210e+04  5.3759738718918001e+04  5.4099880466443348e+04  5.4390961279287061e+04  5.4638097823087381e+04  5.4847030603914733e+04  5.5023564015615659e+04  5.5173017764607786e+04  5.5299734720174733e+04  5.5406685272993614e+04  5.5495200538311248e+04  5.5564856970349436e+04  5.5613523804941302e+04  5.5637572733179477e+04  5.5632236798408223e+04  5.5592093257862805e+04  5.5511633821542571e+04  5.5385876285894970e+04  5.5210965299739852e+04  5.4984707985130204e+04  5.4706993227305386e+04  5.4380051895779739e+04  5.4008528530586285e+04  5.3599351780125573e+04  5.3161409123181795e+04  5.2705048859897826e+04  5.2241446866795573e+04  5.1781885598252236e+04  5.1336997568555737e+04  5.0916025312956517e+04  5.0526145668663994e+04  5.0171899678573383e+04  4.9854762068509881e+04  4.9572877237982626e+04  4.9320982469090726e+04  4.9090533216141223e+04  4.8870038842166636e+04  4.8645608676824108e+04  4.8401696659940739e+04  4.8122017727815095e+04  4.7790591260210706e+04  4.7392848380305317e+04  4.6916723803788394e+04  4.6353642890598545e+04  4.5699313872369617e+04  4.4954246006991263e+04  4.4123936797478600e+04  4.3218703260183967e+04  4.2253169286217642e+04  4.1245457785741812e+04  4.0216166672187690e+04  3.9187226984982153e+04  3.8180746797157211e+04  3.7217935899532153e+04  3.6318186089470510e+04  3.5498354647093809e+04  3.4772269536008476e+04  3.4150448964986899e+04  3.3640008820485236e+04  3.3244720885014103e+04  3.2965182527581361e+04  5.0764938108794260e+04  5.1324223650240609e+04  5.1833333040555815e+04  5.2289407198000496e+04  5.2691757959092618e+04  5.3041795160954243e+04  5.3342797873324504e+04  5.3599545503077185e+04  5.3817837538562460e+04  5.4003940751546244e+04  5.4164008815910565e+04  5.4303521239409689e+04  5.4426786495251225e+04  5.4536548913017672e+04  5.4633731014666395e+04  5.4717333275063298e+04  5.4784502296514678e+04  5.4830766507856366e+04  5.4850426086779553e+04  5.4837071342503441e+04  5.4784192038561196e+04  5.4685830156086173e+04  5.4537221700949012e+04  5.4335370650719393e+04  5.4079501012298795e+04  5.3771341575210863e+04  5.3415211797127020e+04  5.3017894944518557e+04  5.2588304005914062e+04  5.2136964520199697e+04  5.1675353972071585e+04  5.1215148060726606e+04  5.0767429147862880e+04  5.0341911789550439e+04  4.9946235606588416e+04  4.9585368534010573e+04  4.9261155439080278e+04  4.8972039498729275e+04  4.8712977095029128e+04  4.8475560945865313e+04  4.8248359629637795e+04  4.8017473141224844e+04  4.7767292393247139e+04  4.7481435187571689e+04  4.7143812868938359e+04  4.6739762739142978e+04  4.6257164607171129e+04  4.5687449384154555e+04  4.5026406892141720e+04  4.4274711262225210e+04  4.3438105616342560e+04  4.2527220900031942e+04  4.1557042279213281e+04  4.0546074509046550e+04  3.9515288966444590e+04  3.8486954550233124e+04  3.7483459557105525e+04  3.6526221924427082e+04  3.5634763622917613e+04  3.4825996226119591e+04  3.4113734371956634e+04  3.3508427143566791e+04  3.3017078067719172e+04  3.2643314189063192e+04  3.2387563224550438e+04  5.0169062714883519e+04  5.0672459789816916e+04  5.1126469480436048e+04  5.1529236792611264e+04  5.1881075867877655e+04  5.2184355878620889e+04  5.2443232687115473e+04  5.2663244621998288e+04  5.2850803212123254e+04  5.3012619007240064e+04  5.3155107934391279e+04  5.3283824840542147e+04  5.3402968333740624e+04  5.3514995452808238e+04  5.3620376839753022e+04  5.3717513607552872e+04  5.3802826423031227e+04  5.3871015721125965e+04  5.3915479669228014e+04  5.3928863917361545e+04  5.3903705047569645e+04  5.3833119111441054e+04  5.3711479146242542e+04  5.3535022550587237e+04  5.3302331822653323e+04  5.3014640880647479e+04  5.2675933527058362e+04  5.2292819129214164e+04  5.1874191012438845e+04  5.1430692743163687e+04  5.0974033887776750e+04  5.0516208080179167e+04  5.0068671439485253e+04  4.9641538806061697e+04  4.9242850143650699e+04  4.8877951604895869e+04  4.8549027051486366e+04  4.8254807673660020e+04  4.7990480353602754e+04  4.7747809196842289e+04  4.7515478055050065e+04  4.7279653343883328e+04  4.7024754680532751e+04  4.6734405286849571e+04  4.6392515445407502e+04  4.5984432709169894e+04  4.5498075414634732e+04  4.4924955291993901e+04  4.4260994242769455e+04  4.3507051981099321e+04  4.2669105377191307e+04  4.1758054632909909e+04  4.0789171171591355e+04  3.9781241154340234e+04  3.8755490438114262e+04  3.7734396345568253e+04  3.6740495955992352e+04  3.5795289852830116e+04  3.4918317338141038e+04  3.4126449077658137e+04  3.3433411831648198e+04  3.2849532718531620e+04  3.2381671148727564e+04  3.2033296827804163e+04  3.1804671610996786e+04  4.9471858768240767e+04  4.9914778210821925e+04  5.0309708033445662e+04  5.0655822985218285e+04  5.0954435849422385e+04  5.1208842774807214e+04  5.1424018207756511e+04  5.1606180175360802e+04  5.1762258393453645e+04  5.1899306057304602e+04  5.2023900600867273e+04  5.2141579185043316e+04  5.2256351683774301e+04  5.2370328221513853e+04  5.2483490623268925e+04  5.2593628029270702e+04  5.2696446705343922e+04  5.2785852866991729e+04  5.2854395246448345e+04  5.2893841505726232e+04  5.2895850176848078e+04  5.2852688795762428e+04  5.2757940837700298e+04  5.2607140570767362e+04  5.2398277305303884e+04  5.2132119290351715e+04  5.1812322255397907e+04  5.1445306810126771e+04  5.1039910222738006e+04  5.0606838683139271e+04  5.0157963327232537e+04  4.9705515034349417e+04  4.9261238367385384e+04  4.8835564269278082e+04  4.8436855569927538e+04  4.8070770930678933e+04  4.7739783563388701e+04  4.7442882431614911e+04  4.7175476321779111e+04  4.6929514801836522e+04  4.6693833458617606e+04  4.6454722305102579e+04  4.6196704450616213e+04  4.5903496427773622e+04  4.5559102674757116e+04  4.5148976774267612e+04  4.4661164609966450e+04  4.4087333698909715e+04  4.3423592347222460e+04  4.2671014335684762e+04  4.1835809722008249e+04  4.0929117569034526e+04  3.9966437097754497e+04  3.8966753519108228e+04  3.7951447021393506e+04  3.6943092751154691e+04  3.5964263270355914e+04  3.5036433140201087e+04  3.4179061161369355e+04  3.3408894679315345e+04  3.2739508322867579e+04  3.2181062078188610e+04  3.1740244524957699e+04  3.1420357963790248e+04  3.1221502437723295e+04  4.8688234898316186e+04  4.9067727968784973e+04  4.9401248976696690e+04  4.9688999407557283e+04  4.9933257957500675e+04  5.0138187234168043e+04  5.0309496028105314e+04  5.0453979965728118e+04  5.0578974142098399e+04  5.0691758703882289e+04  5.0798961862107659e+04  5.0906004606504561e+04  5.1016628047688071e+04  5.1132538595678729e+04  5.1253198791633782e+04  5.1375782998605231e+04  5.1495307492618929e+04  5.1604933755999366e+04  5.1696431963895353e+04  5.1760779049506593e+04  5.1788853078904729e+04  5.1772174232140278e+04  5.1703634137075991e+04  5.1578151383962824e+04  5.1393193171180872e+04  5.1149111840831974e+04  5.0849260138127043e+04  5.0499868818120238e+04  5.0109692247912615e+04  4.9689448959384688e+04  4.9251101866568730e+04  4.8807034951005779e+04  4.8369188645364120e+04  4.7948215190044808e+04  4.7552709278567498e+04  4.7188560383652126e+04  4.6858463378552631e+04  4.6561615046663530e+04  4.6293616501438461e+04  4.6046595056985163e+04  4.5809552450992356e+04  4.5568937844199085e+04  4.5309432214704400e+04  4.5014914985987481e+04  4.4669564676391819e+04  4.4259025271982471e+04  4.3771552443235109e+04  4.3199042826140118e+04  4.2537849201778095e+04  4.1789296944339403e+04  4.0959842673292056e+04  4.0060852044936393e+04  3.9108015005328016e+04  3.8120457015769134e+04  3.7119637014173772e+04  3.6128141806214480e+04  3.5168489391765106e+04  3.4262040824161639e+04  3.3428094986857803e+04  3.2683208672964513e+04  3.2040751826361018e+04  3.1510680323782253e+04  3.1099490036981922e+04  3.0810307585461647e+04  3.0643074403467948e+04  4.7833571049260143e+04  4.8148282106771359e+04  4.8419656844527475e+04  4.8648894098714445e+04  4.8839179921521383e+04  4.8995458762994203e+04  4.9124068155594694e+04  4.9232261353864946e+04  4.9327652094585967e+04  4.9417621941145801e+04  4.9508733280271808e+04  4.9606190226625455e+04  4.9713386109250212e+04  4.9831570625053799e+04  4.9959662775214725e+04  5.0094227684436926e+04  5.0229626363980038e+04  5.0358337261892848e+04  5.0471436951813965e+04  5.0559214775972367e+04  5.0611883437712269e+04  5.0620335771617873e+04  5.0576888973991619e+04  5.0475953318369779e+04  5.0314564320743688e+04  5.0092726164260959e+04  4.9813529532292465e+04  4.9483027231508444e+04  4.9109873543009431e+04  4.8704755056593189e+04  4.8279658887844838e+04  4.7847036457170943e+04  4.7418926407906700e+04  4.7006099062408131e+04  4.6617278503668364e+04  4.6258489046936811e+04  4.5932562722120005e+04  4.5638835089551852e+04  4.5373048976550279e+04  4.5127479176395318e+04  4.4891284509628800e+04  4.4651085178119356e+04  4.4391751512718445e+04  4.4097374361763010e+04  4.3752368207382970e+04  4.3342637916090942e+04  4.2856722440590151e+04  4.2286818040556172e+04  4.1629583558035083e+04  4.0886643370034668e+04  4.0064729882142245e+04  3.9175444095546372e+04  3.8234654665909155e+04  3.7261596238591461e+04  3.6277759855386110e+04  3.5305686495804875e+04  3.4367776645198493e+04  3.3485214759331604e+04  3.2677081262675194e+04  3.1959692003451830e+04  3.1346172288256712e+04  3.0846245343682767e+04  3.0466197027331073e+04  3.0208971168638273e+04  3.0074352118815557e+04  4.6922866080976906e+04  4.7172903702609343e+04  4.7382845991263472e+04  4.7554837010027324e+04  4.7692890290521384e+04  4.7802628588276915e+04  4.7890896800406452e+04  4.7965273657394937e+04  4.8033516344040050e+04  4.8102977411046195e+04  4.8180035091589860e+04  4.8269576824511278e+04  4.8374572097269433e+04  4.8495765387066400e+04  4.8631513531286604e+04  4.8777784501632887e+04  4.8928326174230548e+04  4.9075004004837880e+04  4.9208295358752388e+04  4.9317915813203166e+04  4.9393539831299800e+04  4.9425566207440941e+04  4.9405869466052311e+04  4.9328473917516734e+04  4.9190088920118673e+04  4.8990452806042646e+04  4.8732448481478968e+04  4.8421974255068184e+04  4.8067576339787338e+04  4.7679871567898685e+04  4.7270807159959761e+04  4.6852816672435416e+04  4.6437936503722398e+04  4.6036945909671005e+04  4.5658586869236315e+04  4.5308910532077854e+04  4.4990786611835050e+04  4.4703602650590976e+04  4.4443172283993554e+04  4.4201865080664182e+04  4.3968963888628496e+04  4.3731247127196249e+04  4.3473781563696051e+04  4.3180895155994091e+04  4.2837280280605832e+04  4.2429157452154781e+04  4.1945412154257116e+04  4.1378606947932909e+04  4.0725771491405263e+04  3.9988886851893913e+04  3.9175007445066578e+04  3.8296001222693885e+04  3.7367930970690744e+04  3.6410139909693498e+04  3.5444136317169396e+04  3.4492389271640051e+04  3.3577148306178984e+04  3.2719384553659133e+04  3.1937923747498258e+04  3.1248808130199428e+04  3.0664891418193667e+04  3.0195644081333772e+04  2.9847128941653558e+04  2.9622100646785788e+04  2.9520185805105750e+04  4.5970022426088050e+04  4.6156767209997510e+04  4.6307240254663971e+04  4.6424460580841907e+04  4.6513173324281532e+04  4.6579562897430842e+04  4.6630850418260496e+04  4.6674801658386023e+04  4.6719179084049822e+04  4.6771175702184970e+04  4.6836869411776897e+04  4.6920734872646339e+04  4.7025246240442299e+04  4.7150599148023051e+04  4.7294574461514887e+04  4.7452559671203147e+04  4.7617736046516999e+04  4.7781430514634565e+04  4.7933620383919399e+04  4.8063566726817866e+04  4.8160539287413529e+04  4.8214583661768389e+04  4.8217272153262391e+04  4.8162375154486203e+04  4.8046391772021510e+04  4.7868887433398901e+04  4.7632601942994210e+04  4.7343312180455745e+04  4.7009456656247065e+04  4.6641551264071517e+04  4.6251443782060240e+04  4.5851466760416719e+04  4.5453553421630888e+04  4.5068379489876716e+04  4.4704587015990117e+04  4.4368136496118190e+04  4.4061823148234696e+04  4.3784983785489079e+04  4.3533412983586859e+04  4.3299500730992928e+04  4.3072597106937646e+04  4.2839600960521238e+04  4.2585757519481587e+04  4.2295633724924264e+04  4.1954220694581054e+04  4.1548092495257362e+04  4.1066533111813937e+04  4.0502533480040554e+04  3.9853561579171561e+04  3.912202313120061