<?xml version="1.0"?>
<VTKFile type="UnstructuredGrid"  version="0.1"  >
<UnstructuredGrid>
<Piece  NumberOfPoints="4225" NumberOfCells="8192">
<Points>
<DataArray  type="Float64"  NumberOfComponents="3"  format="ascii">0 0 0  0.015625 0 0  0.03125 0 0  0.046875 0 0  0.0625 0 0  0.078125 0 0  0.09375 0 0  0.109375 0 0  0.125 0 0  0.140625 0 0  0.15625 0 0  0.171875 0 0  0.1875 0 0  0.203125 0 0  0.21875 0 0  0.234375 0 0  0.25 0 0  0.265625 0 0  0.28125 0 0  0.296875 0 0  0.3125 0 0  0.328125 0 0  0.34375 0 0  0.359375 0 0  0.375 0 0  0.390625 0 0  0.40625 0 0  0.421875 0 0  0.4375 0 0  0.453125 0 0  0.46875 0 0  0.484375 0 0  0.5 0 0  0.515625 0 0  0.53125 0 0  0.546875 0 0  0.5625 0 0  0.578125 0 0  0.59375 0 0  0.609375 0 0  0.625 0 0  0.640625 0 0  0.65625 0 0  0.671875 0 0  0.6875 0 0  0.703125 0 0  0.71875 0 0  0.734375 0 0  0.75 0 0  0.765625 0 0  0.78125 0 0  0.796875 0 0  0.8125 0 0  0.828125 0 0  0.84375 0 0  0.859375 0 0  0.875 0 0  0.890625 0 0  0.90625 0 0  0.921875 0 0  0.9375 0 0  0.953125 0 0  0.96875 0 0  0.984375 0 0  1 0 0  0 0.015625 0  0.015625 0.015625 0  0.03125 0.015625 0  0.046875 0.015625 0  0.0625 0.015625 0  0.078125 0.015625 0  0.09375 0.015625 0  0.109375 0.015625 0  0.125 0.015625 0  0.140625 0.015625 0  0.15625 0.015625 0  0.171875 0.015625 0  0.1875 0.015625 0  0.203125 0.015625 0  0.21875 0.015625 0  0.234375 0.015625 0  0.25 0.015625 0  0.265625 0.015625 0  0.28125 0.015625 0  0.296875 0.015625 0  0.3125 0.015625 0  0.328125 0.015625 0  0.34375 0.015625 0  0.359375 0.015625 0  0.375 0.015625 0  0.390625 0.015625 0  0.40625 0.015625 0  0.421875 0.015625 0  0.4375 0.015625 0  0.453125 0.015625 0  0.46875 0.015625 0  0.484375 0.015625 0  0.5 0.015625 0  0.515625 0.015625 0  0.53125 0.015625 0  0.546875 0.015625 0  0.5625 0.015625 0  0.578125 0.015625 0  0.59375 0.015625 0  0.609375 0.015625 0  0.625 0.015625 0  0.640625 0.015625 0  0.65625 0.015625 0  0.671875 0.015625 0  0.6875 0.015625 0  0.703125 0.015625 0  0.71875 0.015625 0  0.734375 0.015625 0  0.75 0.015625 0  0.765625 0.015625 0  0.78125 0.015625 0  0.796875 0.015625 0  0.8125 0.015625 0  0.828125 0.015625 0  0.84375 0.015625 0  0.859375 0.015625 0  0.875 0.015625 0  0.890625 0.015625 0  0.90625 0.015625 0  0.921875 0.015625 0  0.9375 0.015625 0  0.953125 0.015625 0  0.96875 0.015625 0  0.984375 0.015625 0  1 0.015625 0  0 0.03125 0  0.015625 0.03125 0  0.03125 0.03125 0  0.046875 0.03125 0  0.0625 0.03125 0  0.078125 0.03125 0  0.09375 0.03125 0  0.109375 0.03125 0  0.125 0.03125 0  0.140625 0.03125 0  0.15625 0.03125 0  0.171875 0.03125 0  0.1875 0.03125 0  0.203125 0.03125 0  0.21875 0.03125 0  0.234375 0.03125 0  0.25 0.03125 0  0.265625 0.03125 0  0.28125 0.03125 0  0.296875 0.03125 0  0.3125 0.03125 0  0.328125 0.03125 0  0.34375 0.03125 0  0.359375 0.03125 0  0.375 0.03125 0  0.390625 0.03125 0  0.40625 0.03125 0  0.421875 0.03125 0  0.4375 0.03125 0  0.453125 0.03125 0  0.46875 0.03125 0  0.484375 0.03125 0  0.5 0.03125 0  0.515625 0.03125 0  0.53125 0.03125 0  0.546875 0.03125 0  0.5625 0.03125 0  0.578125 0.03125 0  0.59375 0.03125 0  0.609375 0.03125 0  0.625 0.03125 0  0.640625 0.03125 0  0.65625 0.03125 0  0.671875 0.03125 0  0.6875 0.03125 0  0.703125 0.03125 0  0.71875 0.03125 0  0.734375 0.03125 0  0.75 0.03125 0  0.765625 0.03125 0  0.78125 0.03125 0  0.796875 0.03125 0  0.8125 0.03125 0  0.828125 0.03125 0  0.84375 0.03125 0  0.859375 0.03125 0  0.875 0.03125 0  0.890625 0.03125 0  0.90625 0.03125 0  0.921875 0.03125 0  0.9375 0.03125 0  0.953125 0.03125 0  0.96875 0.03125 0  0.984375 0.03125 0  1 0.03125 0  0 0.046875 0  0.015625 0.046875 0  0.03125 0.046875 0  0.046875 0.046875 0  0.0625 0.046875 0  0.078125 0.046875 0  0.09375 0.046875 0  0.109375 0.046875 0  0.125 0.046875 0  0.140625 0.046875 0  0.15625 0.046875 0  0.171875 0.046875 0  0.1875 0.046875 0  0.203125 0.046875 0  0.21875 0.046875 0  0.234375 0.046875 0  0.25 0.046875 0  0.265625 0.046875 0  0.28125 0.046875 0  0.296875 0.046875 0  0.3125 0.046875 0  0.328125 0.046875 0  0.34375 0.046875 0  0.359375 0.046875 0  0.375 0.046875 0  0.390625 0.046875 0  0.40625 0.046875 0  0.421875 0.046875 0  0.4375 0.046875 0  0.453125 0.046875 0  0.46875 0.046875 0  0.484375 0.046875 0  0.5 0.046875 0  0.515625 0.046875 0  0.53125 0.046875 0  0.546875 0.046875 0  0.5625 0.046875 0  0.578125 0.046875 0  0.59375 0.046875 0  0.609375 0.046875 0  0.625 0.046875 0  0.640625 0.046875 0  0.65625 0.046875 0  0.671875 0.046875 0  0.6875 0.046875 0  0.703125 0.046875 0  0.71875 0.046875 0  0.734375 0.046875 0  0.75 0.046875 0  0.765625 0.046875 0  0.78125 0.046875 0  0.796875 0.046875 0  0.8125 0.046875 0  0.828125 0.046875 0  0.84375 0.046875 0  0.859375 0.046875 0  0.875 0.046875 0  0.890625 0.046875 0  0.90625 0.046875 0  0.921875 0.046875 0  0.9375 0.046875 0  0.953125 0.046875 0  0.96875 0.046875 0  0.984375 0.046875 0  1 0.046875 0  0 0.0625 0  0.015625 0.0625 0  0.03125 0.0625 0  0.046875 0.0625 0  0.0625 0.0625 0  0.078125 0.0625 0  0.09375 0.0625 0  0.109375 0.0625 0  0.125 0.0625 0  0.140625 0.0625 0  0.15625 0.0625 0  0.171875 0.0625 0  0.1875 0.0625 0  0.203125 0.0625 0  0.21875 0.0625 0  0.234375 0.0625 0  0.25 0.0625 0  0.265625 0.0625 0  0.28125 0.0625 0  0.296875 0.0625 0  0.3125 0.0625 0  0.328125 0.0625 0  0.34375 0.0625 0  0.359375 0.0625 0  0.375 0.0625 0  0.390625 0.0625 0  0.40625 0.0625 0  0.421875 0.0625 0  0.4375 0.0625 0  0.453125 0.0625 0  0.46875 0.0625 0  0.484375 0.0625 0  0.5 0.0625 0  0.515625 0.0625 0  0.53125 0.0625 0  0.546875 0.0625 0  0.5625 0.0625 0  0.578125 0.0625 0  0.59375 0.0625 0  0.609375 0.0625 0  0.625 0.0625 0  0.640625 0.0625 0  0.65625 0.0625 0  0.671875 0.0625 0  0.6875 0.0625 0  0.703125 0.0625 0  0.71875 0.0625 0  0.734375 0.0625 0  0.75 0.0625 0  0.765625 0.0625 0  0.78125 0.0625 0  0.796875 0.0625 0  0.8125 0.0625 0  0.828125 0.0625 0  0.84375 0.0625 0  0.859375 0.0625 0  0.875 0.0625 0  0.890625 0.0625 0  0.90625 0.0625 0  0.921875 0.0625 0  0.9375 0.0625 0  0.953125 0.0625 0  0.96875 0.0625 0  0.984375 0.0625 0  1 0.0625 0  0 0.078125 0  0.015625 0.078125 0  0.03125 0.078125 0  0.046875 0.078125 0  0.0625 0.078125 0  0.078125 0.078125 0  0.09375 0.078125 0  0.109375 0.078125 0  0.125 0.078125 0  0.140625 0.078125 0  0.15625 0.078125 0  0.171875 0.078125 0  0.1875 0.078125 0  0.203125 0.078125 0  0.21875 0.078125 0  0.234375 0.078125 0  0.25 0.078125 0  0.265625 0.078125 0  0.28125 0.078125 0  0.296875 0.078125 0  0.3125 0.078125 0  0.328125 0.078125 0  0.34375 0.078125 0  0.359375 0.078125 0  0.375 0.078125 0  0.390625 0.078125 0  0.40625 0.078125 0  0.421875 0.078125 0  0.4375 0.078125 0  0.453125 0.078125 0  0.46875 0.078125 0  0.484375 0.078125 0  0.5 0.078125 0  0.515625 0.078125 0  0.53125 0.078125 0  0.546875 0.078125 0  0.5625 0.078125 0  0.578125 0.078125 0  0.59375 0.078125 0  0.609375 0.078125 0  0.625 0.078125 0  0.640625 0.078125 0  0.65625 0.078125 0  0.671875 0.078125 0  0.6875 0.078125 0  0.703125 0.078125 0  0.71875 0.078125 0  0.734375 0.078125 0  0.75 0.078125 0  0.765625 0.078125 0  0.78125 0.078125 0  0.796875 0.078125 0  0.8125 0.078125 0  0.828125 0.078125 0  0.84375 0.078125 0  0.859375 0.078125 0  0.875 0.078125 0  0.890625 0.078125 0  0.90625 0.078125 0  0.921875 0.078125 0  0.9375 0.078125 0  0.953125 0.078125 0  0.96875 0.078125 0  0.984375 0.078125 0  1 0.078125 0  0 0.09375 0  0.015625 0.09375 0  0.03125 0.09375 0  0.046875 0.09375 0  0.0625 0.09375 0  0.078125 0.09375 0  0.09375 0.09375 0  0.109375 0.09375 0  0.125 0.09375 0  0.140625 0.09375 0  0.15625 0.09375 0  0.171875 0.09375 0  0.1875 0.09375 0  0.203125 0.09375 0  0.21875 0.09375 0  0.234375 0.09375 0  0.25 0.09375 0  0.265625 0.09375 0  0.28125 0.09375 0  0.296875 0.09375 0  0.3125 0.09375 0  0.328125 0.09375 0  0.34375 0.09375 0  0.359375 0.09375 0  0.375 0.09375 0  0.390625 0.09375 0  0.40625 0.09375 0  0.421875 0.09375 0  0.4375 0.09375 0  0.453125 0.09375 0  0.46875 0.09375 0  0.484375 0.09375 0  0.5 0.09375 0  0.515625 0.09375 0  0.53125 0.09375 0  0.546875 0.09375 0  0.5625 0.09375 0  0.578125 0.09375 0  0.59375 0.09375 0  0.609375 0.09375 0  0.625 0.09375 0  0.640625 0.09375 0  0.65625 0.09375 0  0.671875 0.09375 0  0.6875 0.09375 0  0.703125 0.09375 0  0.71875 0.09375 0  0.734375 0.09375 0  0.75 0.09375 0  0.765625 0.09375 0  0.78125 0.09375 0  0.796875 0.09375 0  0.8125 0.09375 0  0.828125 0.09375 0  0.84375 0.09375 0  0.859375 0.09375 0  0.875 0.09375 0  0.890625 0.09375 0  0.90625 0.09375 0  0.921875 0.09375 0  0.9375 0.09375 0  0.953125 0.09375 0  0.96875 0.09375 0  0.984375 0.09375 0  1 0.09375 0  0 0.109375 0  0.015625 0.109375 0  0.03125 0.109375 0  0.046875 0.109375 0  0.0625 0.109375 0  0.078125 0.109375 0  0.09375 0.109375 0  0.109375 0.109375 0  0.125 0.109375 0  0.140625 0.109375 0  0.15625 0.109375 0  0.171875 0.109375 0  0.1875 0.109375 0  0.203125 0.109375 0  0.21875 0.109375 0  0.234375 0.109375 0  0.25 0.109375 0  0.265625 0.109375 0  0.28125 0.109375 0  0.296875 0.109375 0  0.3125 0.109375 0  0.328125 0.109375 0  0.34375 0.109375 0  0.359375 0.109375 0  0.375 0.109375 0  0.390625 0.109375 0  0.40625 0.109375 0  0.421875 0.109375 0  0.4375 0.109375 0  0.453125 0.109375 0  0.46875 0.109375 0  0.484375 0.109375 0  0.5 0.109375 0  0.515625 0.109375 0  0.53125 0.109375 0  0.546875 0.109375 0  0.5625 0.109375 0  0.578125 0.109375 0  0.59375 0.109375 0  0.609375 0.109375 0  0.625 0.109375 0  0.640625 0.109375 0  0.65625 0.109375 0  0.671875 0.109375 0  0.6875 0.109375 0  0.703125 0.109375 0  0.71875 0.109375 0  0.734375 0.109375 0  0.75 0.109375 0  0.765625 0.109375 0  0.78125 0.109375 0  0.796875 0.109375 0  0.8125 0.109375 0  0.828125 0.109375 0  0.84375 0.109375 0  0.859375 0.109375 0  0.875 0.109375 0  0.890625 0.109375 0  0.90625 0.109375 0  0.921875 0.109375 0  0.9375 0.109375 0  0.953125 0.109375 0  0.96875 0.109375 0  0.984375 0.109375 0  1 0.109375 0  0 0.125 0  0.015625 0.125 0  0.03125 0.125 0  0.046875 0.125 0  0.0625 0.125 0  0.078125 0.125 0  0.09375 0.125 0  0.109375 0.125 0  0.125 0.12
[...]
<PointData  Scalars="gamma"> 
<DataArray  type="Float64"  Name="gamma"  format="ascii">4.2832760284589465e+04  4.2992071134118916e+04  4.3140711931977487e+04  4.3277386782720896e+04  4.3401177140367960e+04  4.3511552370974612e+04  4.3608356193866435e+04  4.3691770110884252e+04  4.3762256861537186e+04  4.3820488640159994e+04  4.3867266111636454e+04  4.3903435040274097e+04  4.3929807531892176e+04  4.3947094470447293e+04  4.3955854750863640e+04  4.3956465458626139e+04  4.3949115348254418e+04  4.3933821973757513e+04  4.3910470782868120e+04  4.3878872563244542e+04  4.3838833975408183e+04  4.3790234659722068e+04  4.3733103672352016e+04  4.3667687860205413e+04  4.3594505253560586e+04  4.3514377611371739e+04  4.3428437818371902e+04  4.3338109777228223e+04  4.3245060599332581e+04  4.3151127092467184e+04  4.3058220593277576e+04  4.2968215940346017e+04  4.2882831710580314e+04  4.2803509674399480e+04  4.2731301736305184e+04  4.2666772427515498e+04  4.2609924342917759e+04  4.2560152814889327e+04  4.2516234643339565e+04  4.2476353904957439e+04  4.2438165797160553e+04  4.2398897196942955e+04  4.2355480218942110e+04  4.2304712662935359e+04  4.2243437010764770e+04  4.2168727762439885e+04  4.2078075602646095e+04  4.1969556360323069e+04  4.1841973114402717e+04  4.1694961173170268e+04  4.1529047968114814e+04  4.1345662991334371e+04  4.1147096496311569e+04  4.0936409426861959e+04  4.0717300561571181e+04  4.0493939810561380e+04  4.0270778704343669e+04  4.0052350210835044e+04  3.9843070075805932e+04  3.9647050995792895e+04  3.9467939287715715e+04  3.9308781558320232e+04  3.9171926453765125e+04  3.9058964115024035e+04  3.8970703658482613e+04  4.2874916086894751e+04  4.3033316099925352e+04  4.3180637561949232e+04  4.3315664886902872e+04  4.3437581855195502e+04  4.3545977777351523e+04  4.3640828039742803e+04  4.3722450456954131e+04  4.3791440894404550e+04  4.3848593401072991e+04  4.3894811431267190e+04  4.3931017509251687e+04  4.3958068832905323e+04  4.3976685815717159e+04  4.3987399480497203e+04  4.3990522040171345e+04  4.3986143062499665e+04  4.3974151470385004e+04  4.3954281443042717e+04  4.3926178223300849e+04  4.3889478063776551e+04  4.3843895204850829e+04  4.3789307988997622e+04  4.3725836059852030e+04  4.3653901102178337e+04  4.3574264725436187e+04  4.3488038794505374e+04  4.3396665627868279e+04  4.3301867836971680e+04  4.3205569970526900e+04  4.3109796356555576e+04  4.3016551430488536e+04  4.2927690269609011e+04  4.2844787944502830e+04  4.2769016620413546e+04  4.2701039111663013e+04  4.2640926855043996e+04  4.2588109080566937e+04  4.2541358378152800e+04  4.2498815940551343e+04  4.2458057558915061e+04  4.2416199021265427e+04  4.2370037003828693e+04  4.2316218977776756e+04  4.2251433251135400e+04  4.2172608238841829e+04  4.2077108634372264e+04  4.1962915562885966e+04  4.1828778195097962e+04  4.1674325768224830e+04  4.1500131449557215e+04  4.1307722811686137e+04  4.1099537568505199e+04  4.0878827265802451e+04  4.0649515416342532e+04  4.0416019733394773e+04  4.0183050351520236e+04  3.9955397058793220e+04  3.9737718573993894e+04  3.9534345893941085e+04  3.9349109921789095e+04  3.9185201236815868e+04  3.9045067259913427e+04  3.8930349455181225e+04  3.8841860776910311e+04  4.2887353166807188e+04  4.3042771672645264e+04  4.3186785347785240e+04  4.3318285214211493e+04  4.3436581361095668e+04  4.3541403952791501e+04  4.3632877275115061e+04  4.3711468591492601e+04  4.3777915714381597e+04  4.3833139034565356e+04  4.3878145112444668e+04  4.3913929693834492e+04  4.3941388103030920e+04  4.3961240387149897e+04  4.3973977394965987e+04  4.3979832274477369e+04  4.3978779803832942e+04  4.3970563689429902e+04  4.3954749643786905e+04  4.3930799868074304e+04  4.3898162678669083e+04  4.3856369588115573e+04  4.3805131306983938e+04  4.3744423964112633e+04  4.3674557386719593e+04  4.3596218515493027e+04  4.3510484864537044e+04  4.3418805223320043e+04  4.3322947342998101e+04  4.3224914934134671e+04  4.3126838710555203e+04  4.3030848256163408e+04  4.2938933026870254e+04  4.2852801745324832e+04  4.2773749776599070e+04  4.2702543810567862e+04  4.2639332374524638e+04  4.2583589423548445e+04  4.2534096571067443e+04  4.2488967485423062e+04  4.2445715643913041e+04  4.2401364066464339e+04  4.2352592935386914e+04  4.2295918276097458e+04  4.2227892306866343e+04  4.2145313889184828e+04  4.2045435974217689e+04  4.1926156284009936e+04  4.1786177872731852e+04  4.1625127768641614e+04  4.1443624555263166e+04  4.1243289319611315e+04  4.1026698553716218e+04  4.0797281928185184e+04  4.0559171914197890e+04  4.0317015597684454e+04  4.0075761386668084e+04  3.9840434480104122e+04  3.9615914922253796e+04  3.9406730935973355e+04  3.9216878248019624e+04  3.9049673587064695e+04  3.8907647755079204e+04  3.8792480911260871e+04  3.8704980163722277e+04  4.2869220388133741e+04  4.3019607404027418e+04  4.3158355750991293e+04  4.3284487888460411e+04  4.3397462162864816e+04  4.3497167976513469e+04  4.3583892842531728e+04  4.3658263470390557e+04  4.3721165236206456e+04  4.3773646270791389e+04  4.3816813764949533e+04  4.3851730819969060e+04  4.3879322201439485e+04  4.3900296691982221e+04  4.3915092446859788e+04  4.3923849945267495e+04  4.3926414941556752e+04  4.3922371417652990e+04  4.3911102094994974e+04  4.3891871760014525e+04  4.3863926666843974e+04  4.3826601767545115e+04  4.3779426622171435e+04  4.3722220657765858e+04  4.3655169022234601e+04  4.3578871595210629e+04  4.3494359681748072e+04  4.3403077367695150e+04  4.3306827248235044e+04  4.3207683016405790e+04  4.3107873981168144e+04  4.3009648769762476e+04  4.2915127104255342e+04  4.2826149539398080e+04  4.2744135384361587e+04  4.2669958733213556e+04  4.2603851660388311e+04  4.2545342273109454e+04  4.2493233524777010e+04  4.2445626543225197e+04  4.2399989770302360e+04  4.2353272506311456e+04  4.2302058592844660e+04  4.2242753083709635e+04  4.2171792034208665e+04  4.2085863222818021e+04  4.1982123973858877e+04  4.1858401533271841e+04  4.1713361862970087e+04  4.1546634357807954e+04  4.1358882806237758e+04  4.1151816707859660e+04  4.0928141482108571e+04  4.0691450705586627e+04  4.0446067817966381e+04  4.0196848291983340e+04  3.9948955730738307e+04  3.9707626547224143e+04  3.9477937780310051e+04  3.9264591350773291e+04  3.9071725921664969e+04  3.8902764823374884e+04  3.8760305563023641e+04  3.8646053542633570e+04  3.8560799967244318e+04  4.2820493609599987e+04  4.2963887733802600e+04  4.3095510867957673e+04  4.3214539327948951e+04  4.3320598713163978e+04  4.3413752657526515e+04  4.3494462542069086e+04  4.3563520704766444e+04  4.3621961947245523e+04  4.3670960037342789e+04  4.3711717259963516e+04  4.3745355754273143e+04  4.3772819338807210e+04  4.3794793780007720e+04  4.3811652073750432e+04  4.3823429397650973e+04  4.3829830099212093e+04  4.3830266575801150e+04  4.3823927353258216e+04  4.3809869262386739e+04  4.3787126527570828e+04  4.3754827990368998e+04  4.3712312741491151e+04  4.3659234236373552e+04  4.3595643575683425e+04  4.3522044025215961e+04  4.3439410935470332e+04  4.3349173832445093e+04  4.3253160363656709e+04  4.3153504742030411e+04  4.3052526081235723e+04  4.2952584338035835e+04  4.2855923306685785e+04  4.2764511154653737e+04  4.2679889325748612e+04  4.2603040301447843e+04  4.2534283775509241e+04  4.2473209345682022e+04  4.2418651939077048e+04  4.2368713930266436e+04  4.2320835339251047e+04  4.2271910670971920e+04  4.2218447966679778e+04  4.2156762615411579e+04  4.2083195615823061e+04  4.1994343535340289e+04  4.1887285668711011e+04  4.1759793127640492e+04  4.1610505013864597e+04  4.1439058544511434e+04  4.1246162963852330e+04  4.1033611074417015e+04  4.0804226884357231e+04  4.0561752720432676e+04  4.0310683681992923e+04  4.0056061036555431e+04  3.9803238721622947e+04  3.9557638325124375e+04  3.9324507757953579e+04  3.9108697465888363e+04  3.8914465739646170e+04  3.8745321820082398e+04  3.8603912409873032e+04  3.8491954190202356e+04  3.8410212213084662e+04  4.2741950510061703e+04  4.2876542698203084e+04  4.2999340864799662e+04  4.3109694357770670e+04  4.3207411281012392e+04  4.3292740380781936e+04  4.3366323228729212e+04  4.3429119637589967e+04  4.3482311540134637e+04  4.3527192459863305e+04  4.3565051024469423e+04  4.3597057603911744e+04  4.3624163047091708e+04  4.3647017663969003e+04  4.3665917128572706e+04  4.3680779979836254e+04  4.3691159017250888e+04  4.3696286291259632e+04  4.3695148750263863e+04  4.3686589110533081e+04  4.3669424347600456e+04  4.3642572546466792e+04  4.3605177851136395e+04  4.3556723041042344e+04  4.3497119894022595e+04  4.3426768959368579e+04  4.3346582563898584e+04  4.3257967633487911e+04  4.3162767993957437e+04  4.3063168946288752e+04  4.2961569819866745e+04  4.2860432657000230e+04  4.2762116997968122e+04  4.2668711821110795e+04  4.2581876026648082e+04  4.2502698478091952e+04  4.2431587612541844e+04  4.2368199095364114e+04  4.2311408012996784e+04  4.2259329739996298e+04  4.2209390939791003e+04  4.2158449222776449e+04  4.2102956876944168e+04  4.2039160941643473e+04  4.1963328914577956e+04  4.1871986826787645e+04  4.1762154588347759e+04  4.1631562691064668e+04  4.1478834784404782e+04  4.1303622430471471e+04  4.1106681445439892e+04  4.0889883422295490e+04  4.0656160913621599e+04  4.0409389829645435e+04  4.0154217331465436e+04  3.9895847372526019e+04  3.9639798685599730e+04  3.9391651227266826e+04  3.9156796873445659e+04  3.8940208683830351e+04  3.8746240627401065e+04  3.8578466657703051e+04  3.8439564813926139e+04  3.8331248910947957e+04  3.8254247584529381e+04  4.2635098814646582e+04  4.2759288111715287e+04  4.2871776024462575e+04  4.2972100198196844e+04  4.3060262141438958e+04  4.3136701953659867e+04  4.3202242970713669e+04  4.3258009663290191e+04  4.3305324424152444e+04  4.3345590754149693e+04  4.3380171631448837e+04  4.3410272414155792e+04  4.3436837444494777e+04  4.3460468619063053e+04  4.3481372643798320e+04  4.3499341622663233e+04  4.3513769180395873e+04  4.3523701654049451e+04  4.3527921179869634e+04  4.3525054935124994e+04  4.3513702557732315e+04  4.3492572045322362e+04  4.3460613397075103e+04  4.3417139035526554e+04  4.3361920701098388e+04  4.3295254040295913e+04  4.3217984411834397e+04  4.3131490330361434e+04  4.3037624203993502e+04  4.2938613310882247e+04  4.2836927012601111e+04  4.2735118766777268e+04  4.2635653393726338e+04  4.2540731170722014e+04  4.2452120654586855e+04  4.2371011717420588e+04  4.2297899212041448e+04  4.2232506067133232e+04  4.2173752541890055e+04  4.2119775920537671e+04  4.2068002156375129e+04  4.2015267941719823e+04  4.1957988469682568e+04  4.1892362903298970e+04  4.1814606481989329e+04  4.1721195544663693e+04  4.1609109843917184e+04  4.1476055673108684e+04  4.1320653770967438e+04  4.1142577827108908e+04  4.0942632637878822e+04  4.0722765318688500e+04  4.0486008058001164e+04  4.0236356170679537e+04  3.9978590104136063e+04  3.9718054047532481e+04  3.9460406500579746e+04  3.9211359370245984e+04  3.8976421884497489e+04  3.8760664033950896e+04  3.8568511702955802e+04  3.8403582524146310e+04  3.8268568170166342e+04  3.8165165601918525e+04  3.8094056942558535e+04  4.2502063309927311e+04  4.2614501191742929e+04  4.2715450964100251e+04  4.2804649469945645e+04  4.2882297790573153e+04  4.2949028686383339e+04  4.3005843882064466e+04  4.3054024919343050e+04  4.3095023581451343e+04  4.3130339722359124e+04  4.3161395544456318e+04  4.3189415860610861e+04  4.3215323619698698e+04  4.3239659001116124e+04  4.3262528775916391e+04  4.3283590508279303e+04  4.3302073672940605e+04  4.3316837050138180e+04  4.3326459000822259e+04  4.3329354604335065e+04  4.3323911350027185e+04  4.3308633304896517e+04  4.3282282607314068e+04  4.3244006901011533e+04  4.3193442001185489e+04  4.3130780671030807e+04  4.3056800783700586e+04  4.2972849161798898e+04  4.2880780761327755e+04  4.2782856295961807e+04  4.2681604576351187e+04  4.2579658503131541e+04  4.2479575608270272e+04  4.2383655182891038e+04  4.2293764344709169e+04  4.2211184940155552e+04  4.2136492044593404e+04  4.2069473131671002e+04  4.2009094831531271e+04  4.1953521665724737e+04  4.1900188293125553e+04  4.1845923683729976e+04  4.1787122340036658e+04  4.1719954346550279e+04  4.1640602855432633e+04  4.1545514888219790e+04  4.1431649371607091e+04  4.1296705448094675e+04  4.1139314563433029e+04  4.0959181758245322e+04  4.0757164930642095e+04  4.0535285343502896e+04  4.0296667898552412e+04  4.0045415138680437e+04  3.9786423977191400e+04  3.9525158247014158e+04  3.9267392911692143e+04  3.9018946977724743e+04  3.8785421806228755e+04  3.8571959848152750e+04  3.8383036168245686e+04  3.8222291889849352e+04  3.8092415284494062e+04  3.7995072973334252e+04  3.7930890820129192e+04  4.2345440600731010e+04  4.2445061456277574e+04  4.2533531729877257e+04  4.2610793783399851e+04  4.2677249578114825e+04  4.2733720869701639e+04  4.2781379492699831e+04  4.2821651823557520e+04  4.2856103747999383e+04  4.2886314221587949e+04  4.2913746645322899e+04  4.2939627690615183e+04  4.2964842877696887e+04  4.2989857176178572e+04  4.3014667240169067e+04  4.3038789729423494e+04  4.3061287639860981e+04  4.3080833824363668e+04  4.3095808095007305e+04  4.3104421642122470e+04  4.3104860177246737e+04  4.3095435403028896e+04  4.3074733317374048e+04  4.3041747618974463e+04  4.2995987181508426e+04  4.2937548203227765e+04  4.2867144117863500e+04  4.2786089475842316e+04  4.2696237498511211e+04  4.2599874555741982e+04  4.2499578101291110e+04  4.2398047344658553e+04  4.2297917942510845e+04  4.2201573150360375e+04  4.2110964172633721e+04  4.2027451948268084e+04  4.1951681417099491e+04  4.1883497550451430e+04  4.1821910205385495e+04  4.1765112257896144e+04  4.1710552545593913e+04  4.1655061962023952e+04  4.1595027675795784e+04  4.1526607036472196e+04  4.1445969487690003e+04  4.1349552020679745e+04  4.1234311699187820e+04  4.1097957898212815e+04  4.0939147385699682e+04  4.0757627367984031e+04  4.0554315063305221e+04  4.0331307006719042e+04  4.0091816682562421e+04  3.9840044657264829e+04  3.9580990533794022e+04  3.9320220213657405e+04  3.9063604722744560e+04  3.8817048028784666e+04  3.8586220871484278e+04  3.8376315863505704e+04  3.8191836365239447e+04  3.8036428315570243e+04  3.7912760724633081e+04  3.7822457233638139e+04  3.7766078237916328e+04  4.2168133323244379e+04  4.2254169690505056e+04  4.2329519637020610e+04  4.2394332822865319e+04  4.2449208662985984e+04  4.2495149481953951e+04  4.2533484326859929e+04  4.2565767862164452e+04  4.2593660938458997e+04  4.2618801105859638e+04  4.2642672386401515e+04  4.2666483948495857e+04  4.2691066925989908e+04  4.2716797536620405e+04  4.2743552963940587e+04  4.2770704285927197e+04  4.2797148194103844e+04  4.2821376495682322e+04  4.2841579589880668e+04  4.2855777437316610e+04  4.2861969192854551e+04  4.2858290848994475e+04  4.2843169129555397e+04  4.2815459636831729e+04  4.2774557980281053e+04  4.2720474303112169e+04  4.2653864174132454e+04  4.2576012024405143e+04  4.2488766899349903e+04  4.2394433939195806e+04  4.2295628365615281e+04  4.2195101555160880e+04  4.2095550815176459e+04  4.1999425637555760e+04  4.1908743479587283e+04  4.1824927576766553e+04  4.1748678044531531e+04  4.1679885701970321e+04  4.1617595763505495e+04  4.1560025878841319e+04  4.1504640017191734e+04  4.1448276445095122e+04  4.1387324620379019e+04  4.1317942357207110e+04  4.1236301323905631e+04  4.1138846106733741e+04  4.1022550047593046e+04  4.0885150178111602e+04  4.0725344094077125e+04  4.0542933673960593e+04  4.0338904086108429e+04  4.0115431284714374e+04  3.9875816708617422e+04  3.9624353582610260e+04  3.9366134450799269e+04  3.9106813778855409e+04  3.8852342232066359e+04  3.8608690367719719e+04  3.8381579004303727e+04  3.8176231682690232e+04  3.7997161795116168e+04  3.7848003566140360e+04  3.7731392543992784e+04  3.7648897933580607e+04  3.7601006186836239e+04  4.1973177215794749e+04  4.2045159557288876e+04  4.2107047584734355e+04  4.2159195771536230e+04  4.2202393195520111e+04  4.2237810009185050e+04  4.2266915459010292e+04  4.2291372172695694e+04  4.2312913510565850e+04  4.2333212355287040e+04  4.2353750659050245e+04  4.2375699310301716e+04  4.2399817416024751e+04  4.2426378965471755e+04  4.2455133129990478e+04  4.2485302269075233e+04  4.2515619179789515e+04  4.2544402384793037e+04  4.2569665459938660e+04  4.2589253732340476e+04  4.2600999329379971e+04  4.2602883733518582e+04  4.2593195893285018e+04  4.2570673718020131e+04  4.2534617538003418e+04  4.2484965846114457e+04  4.2422326249684978e+04  4.2347957845067103e+04  4.2263704892747788e+04  4.2171885381208645e+04  4.2075141486570014e+04  4.1976261771681267e+04  4.1877987014318511e+04  4.1782812702520037e+04  4.1692801478850117e+04  4.1609418227494694e+04  4.1533399199053834e+04  4.1464664690345657e+04  4.1402282456712623e+04  4.1344486318157076e+04  4.1288751388187484e+04  4.1231924060947043e+04  4.1170401420274764e+04  4.1100351224362785e+04  4.1017960290436808e+04  4.0919696251198002e+04  4.0802565623772673e+04  4.0664350264739551e+04  4.0503804852304034e+04  4.0320800169216876e+04  4.0116400594631610e+04  3.9892869072826019e+04  3.9653598441487695e+04  3.9402973770870689e+04  3.9146175647832453e+04  3.8888938561455572e+04  3.8637281294248125e+04  3.8397227299632839e+04  3.8174532494823958e+04  3.7974435968908052e+04  3.7801446192150019e+04  3.7659171864598546e+04  3.7550202983488722e+04  3.7476044371896118e+04  3.7437101002875155e+04  4.1763574919328210e+04  4.1821316874969438e+04  4.1869684993413764e+04  4.1909232302961835e+04  4.1940925967135714e+04  4.1966087554959930e+04  4.1986306065748679e+04  4.2003328676282887e+04  4.2018936144513093e+04  4.2034811266927602e+04  4.2052409626070854e+04  4.2072842021711418e+04  4.2096777453257004e+04  4.2124374358740497e+04  4.2155246097063602e+04  4.2188464486980360e+04  4.2222602705725294e+04  4.2255816134531779e+04  4.2285956968757804e+04  4.2310715760941588e+04  4.2327780731692663e+04  4.2335003873880501e+04  4.2330561790398991e+04  4.2313099009328696e+04  4.2281842310092412e+04  4.2236676373893519e+04  4.2178173736239412e+04  4.2107575357255751e+04  4.2026721840772865e+04  4.1937939083343161e+04  4.1843885577987276e+04  4.1747371441231480e+04  4.1651161267445757e+04  4.1557774037005591e+04  4.1469293511497825e+04  4.1387201917798877e+04  4.1312248378226439e+04  4.1244361621868076e+04  4.1182614130368682e+04  4.1125242115908797e+04  4.1069722659143947e+04  4.1012906005320088e+04  4.0951197510383972e+04  4.0880780188490491e+04  4.0797865460854424e+04  4.0698956844707311e+04  4.0581109300995595e+04  4.0442166126681550e+04  4.0280955904013135e+04  4.0097434232049767e+04  3.9892758694308148e+04  3.9669290472109620e+04  3.9430521712494723e+04  3.9180933588417087e+04  3.8925795298225821e+04  3.8670918463279333e+04  3.8422384084265337e+04  3.8186260222118748e+04  3.7968327933665329e+04  3.7773830980432453e+04  3.7607261847464659e+04  3.7472193116434486e+04  3.7371159660257072e+04  3.7305593794018801e+04  3.7275812629029111e+04  4.1542149631061671e+04  4.1585720712833310e+04  4.1620766508117857e+04  4.1648029228216175e+04  4.1668639499696066e+04  4.1684051020688705e+04  4.1695949478721595e+04  4.1706140896497229e+04  4.1716426409247302e+04  4.1728471813755903e+04  4.1743680957924167e+04  4.1763082112127442e+04  4.1787235884159352e+04  4.1816172054897317e+04  4.1849360997756397e+04  4.1885723196303807e+04  4.1923677900334864e+04  4.1961229286429894e+04  4.1996085760720794e+04  4.2025805430959816e+04  4.2047958477985427e+04  4.2060295383118464e+04  4.2060908920468049e+04  4.2048377667641769e+04  4.2021879622442757e+04  4.1981266338550115e+04  4.1927090701157867e+04  4.1860584838049384e+04  4.1783588402063215e+04  4.1698431221532250e+04  4.1607777753213340e+04  4.1514443595034660e+04  4.1421196318209601e+04  4.1330553959638652e+04  4.1244594677907786e+04  4.1164790401434373e+04  4.1091875912969554e+04  4.1025762857446105e+04  4.0965505747170602e+04  4.0909324254015140e+04  4.0854682980329417e+04  4.0798426543069589e+04  4.0736964273182326e+04  4.0666495270832667e+04  4.0583261194798761e+04  4.0483811308531032e+04  4.0365262311984581e+04  4.0225534706429789e+04  4.0063548139841689e+04  3.987936048456264