<?xml version="1.0"?>
<VTKFile type="UnstructuredGrid"  version="0.1"  >
<UnstructuredGrid>
<Piece  NumberOfPoints="4225" NumberOfCells="8192">
<Points>
<DataArray  type="Float64"  NumberOfComponents="3"  format="ascii">0 0 0  0.015625 0 0  0.03125 0 0  0.046875 0 0  0.0625 0 0  0.078125 0 0  0.09375 0 0  0.109375 0 0  0.125 0 0  0.140625 0 0  0.15625 0 0  0.171875 0 0  0.1875 0 0  0.203125 0 0  0.21875 0 0  0.234375 0 0  0.25 0 0  0.265625 0 0  0.28125 0 0  0.296875 0 0  0.3125 0 0  0.328125 0 0  0.34375 0 0  0.359375 0 0  0.375 0 0  0.390625 0 0  0.40625 0 0  0.421875 0 0  0.4375 0 0  0.453125 0 0  0.46875 0 0  0.484375 0 0  0.5 0 0  0.515625 0 0  0.53125 0 0  0.546875 0 0  0.5625 0 0  0.578125 0 0  0.59375 0 0  0.609375 0 0  0.625 0 0  0.640625 0 0  0.65625 0 0  0.671875 0 0  0.6875 0 0  0.703125 0 0  0.71875 0 0  0.734375 0 0  0.75 0 0  0.765625 0 0  0.78125 0 0  0.796875 0 0  0.8125 0 0  0.828125 0 0  0.84375 0 0  0.859375 0 0  0.875 0 0  0.890625 0 0  0.90625 0 0  0.921875 0 0  0.9375 0 0  0.953125 0 0  0.96875 0 0  0.984375 0 0  1 0 0  0 0.015625 0  0.015625 0.015625 0  0.03125 0.015625 0  0.046875 0.015625 0  0.0625 0.015625 0  0.078125 0.015625 0  0.09375 0.015625 0  0.109375 0.015625 0  0.125 0.015625 0  0.140625 0.015625 0  0.15625 0.015625 0  0.171875 0.015625 0  0.1875 0.015625 0  0.203125 0.015625 0  0.21875 0.015625 0  0.234375 0.015625 0  0.25 0.015625 0  0.265625 0.015625 0  0.28125 0.015625 0  0.296875 0.015625 0  0.3125 0.015625 0  0.328125 0.015625 0  0.34375 0.015625 0  0.359375 0.015625 0  0.375 0.015625 0  0.390625 0.015625 0  0.40625 0.015625 0  0.421875 0.015625 0  0.4375 0.015625 0  0.453125 0.015625 0  0.46875 0.015625 0  0.484375 0.015625 0  0.5 0.015625 0  0.515625 0.015625 0  0.53125 0.015625 0  0.546875 0.015625 0  0.5625 0.015625 0  0.578125 0.015625 0  0.59375 0.015625 0  0.609375 0.015625 0  0.625 0.015625 0  0.640625 0.015625 0  0.65625 0.015625 0  0.671875 0.015625 0  0.6875 0.015625 0  0.703125 0.015625 0  0.71875 0.015625 0  0.734375 0.015625 0  0.75 0.015625 0  0.765625 0.015625 0  0.78125 0.015625 0  0.796875 0.015625 0  0.8125 0.015625 0  0.828125 0.015625 0  0.84375 0.015625 0  0.859375 0.015625 0  0.875 0.015625 0  0.890625 0.015625 0  0.90625 0.015625 0  0.921875 0.015625 0  0.9375 0.015625 0  0.953125 0.015625 0  0.96875 0.015625 0  0.984375 0.015625 0  1 0.015625 0  0 0.03125 0  0.015625 0.03125 0  0.03125 0.03125 0  0.046875 0.03125 0  0.0625 0.03125 0  0.078125 0.03125 0  0.09375 0.03125 0  0.109375 0.03125 0  0.125 0.03125 0  0.140625 0.03125 0  0.15625 0.03125 0  0.171875 0.03125 0  0.1875 0.03125 0  0.203125 0.03125 0  0.21875 0.03125 0  0.234375 0.03125 0  0.25 0.03125 0  0.265625 0.03125 0  0.28125 0.03125 0  0.296875 0.03125 0  0.3125 0.03125 0  0.328125 0.03125 0  0.34375 0.03125 0  0.359375 0.03125 0  0.375 0.03125 0  0.390625 0.03125 0  0.40625 0.03125 0  0.421875 0.03125 0  0.4375 0.03125 0  0.453125 0.03125 0  0.46875 0.03125 0  0.484375 0.03125 0  0.5 0.03125 0  0.515625 0.03125 0  0.53125 0.03125 0  0.546875 0.03125 0  0.5625 0.03125 0  0.578125 0.03125 0  0.59375 0.03125 0  0.609375 0.03125 0  0.625 0.03125 0  0.640625 0.03125 0  0.65625 0.03125 0  0.671875 0.03125 0  0.6875 0.03125 0  0.703125 0.03125 0  0.71875 0.03125 0  0.734375 0.03125 0  0.75 0.03125 0  0.765625 0.03125 0  0.78125 0.03125 0  0.796875 0.03125 0  0.8125 0.03125 0  0.828125 0.03125 0  0.84375 0.03125 0  0.859375 0.03125 0  0.875 0.03125 0  0.890625 0.03125 0  0.90625 0.03125 0  0.921875 0.03125 0  0.9375 0.03125 0  0.953125 0.03125 0  0.96875 0.03125 0  0.984375 0.03125 0  1 0.03125 0  0 0.046875 0  0.015625 0.046875 0  0.03125 0.046875 0  0.046875 0.046875 0  0.0625 0.046875 0  0.078125 0.046875 0  0.09375 0.046875 0  0.109375 0.046875 0  0.125 0.046875 0  0.140625 0.046875 0  0.15625 0.046875 0  0.171875 0.046875 0  0.1875 0.046875 0  0.203125 0.046875 0  0.21875 0.046875 0  0.234375 0.046875 0  0.25 0.046875 0  0.265625 0.046875 0  0.28125 0.046875 0  0.296875 0.046875 0  0.3125 0.046875 0  0.328125 0.046875 0  0.34375 0.046875 0  0.359375 0.046875 0  0.375 0.046875 0  0.390625 0.046875 0  0.40625 0.046875 0  0.421875 0.046875 0  0.4375 0.046875 0  0.453125 0.046875 0  0.46875 0.046875 0  0.484375 0.046875 0  0.5 0.046875 0  0.515625 0.046875 0  0.53125 0.046875 0  0.546875 0.046875 0  0.5625 0.046875 0  0.578125 0.046875 0  0.59375 0.046875 0  0.609375 0.046875 0  0.625 0.046875 0  0.640625 0.046875 0  0.65625 0.046875 0  0.671875 0.046875 0  0.6875 0.046875 0  0.703125 0.046875 0  0.71875 0.046875 0  0.734375 0.046875 0  0.75 0.046875 0  0.765625 0.046875 0  0.78125 0.046875 0  0.796875 0.046875 0  0.8125 0.046875 0  0.828125 0.046875 0  0.84375 0.046875 0  0.859375 0.046875 0  0.875 0.046875 0  0.890625 0.046875 0  0.90625 0.046875 0  0.921875 0.046875 0  0.9375 0.046875 0  0.953125 0.046875 0  0.96875 0.046875 0  0.984375 0.046875 0  1 0.046875 0  0 0.0625 0  0.015625 0.0625 0  0.03125 0.0625 0  0.046875 0.0625 0  0.0625 0.0625 0  0.078125 0.0625 0  0.09375 0.0625 0  0.109375 0.0625 0  0.125 0.0625 0  0.140625 0.0625 0  0.15625 0.0625 0  0.171875 0.0625 0  0.1875 0.0625 0  0.203125 0.0625 0  0.21875 0.0625 0  0.234375 0.0625 0  0.25 0.0625 0  0.265625 0.0625 0  0.28125 0.0625 0  0.296875 0.0625 0  0.3125 0.0625 0  0.328125 0.0625 0  0.34375 0.0625 0  0.359375 0.0625 0  0.375 0.0625 0  0.390625 0.0625 0  0.40625 0.0625 0  0.421875 0.0625 0  0.4375 0.0625 0  0.453125 0.0625 0  0.46875 0.0625 0  0.484375 0.0625 0  0.5 0.0625 0  0.515625 0.0625 0  0.53125 0.0625 0  0.546875 0.0625 0  0.5625 0.0625 0  0.578125 0.0625 0  0.59375 0.0625 0  0.609375 0.0625 0  0.625 0.0625 0  0.640625 0.0625 0  0.65625 0.0625 0  0.671875 0.0625 0  0.6875 0.0625 0  0.703125 0.0625 0  0.71875 0.0625 0  0.734375 0.0625 0  0.75 0.0625 0  0.765625 0.0625 0  0.78125 0.0625 0  0.796875 0.0625 0  0.8125 0.0625 0  0.828125 0.0625 0  0.84375 0.0625 0  0.859375 0.0625 0  0.875 0.0625 0  0.890625 0.0625 0  0.90625 0.0625 0  0.921875 0.0625 0  0.9375 0.0625 0  0.953125 0.0625 0  0.96875 0.0625 0  0.984375 0.0625 0  1 0.0625 0  0 0.078125 0  0.015625 0.078125 0  0.03125 0.078125 0  0.046875 0.078125 0  0.0625 0.078125 0  0.078125 0.078125 0  0.09375 0.078125 0  0.109375 0.078125 0  0.125 0.078125 0  0.140625 0.078125 0  0.15625 0.078125 0  0.171875 0.078125 0  0.1875 0.078125 0  0.203125 0.078125 0  0.21875 0.078125 0  0.234375 0.078125 0  0.25 0.078125 0  0.265625 0.078125 0  0.28125 0.078125 0  0.296875 0.078125 0  0.3125 0.078125 0  0.328125 0.078125 0  0.34375 0.078125 0  0.359375 0.078125 0  0.375 0.078125 0  0.390625 0.078125 0  0.40625 0.078125 0  0.421875 0.078125 0  0.4375 0.078125 0  0.453125 0.078125 0  0.46875 0.078125 0  0.484375 0.078125 0  0.5 0.078125 0  0.515625 0.078125 0  0.53125 0.078125 0  0.546875 0.078125 0  0.5625 0.078125 0  0.578125 0.078125 0  0.59375 0.078125 0  0.609375 0.078125 0  0.625 0.078125 0  0.640625 0.078125 0  0.65625 0.078125 0  0.671875 0.078125 0  0.6875 0.078125 0  0.703125 0.078125 0  0.71875 0.078125 0  0.734375 0.078125 0  0.75 0.078125 0  0.765625 0.078125 0  0.78125 0.078125 0  0.796875 0.078125 0  0.8125 0.078125 0  0.828125 0.078125 0  0.84375 0.078125 0  0.859375 0.078125 0  0.875 0.078125 0  0.890625 0.078125 0  0.90625 0.078125 0  0.921875 0.078125 0  0.9375 0.078125 0  0.953125 0.078125 0  0.96875 0.078125 0  0.984375 0.078125 0  1 0.078125 0  0 0.09375 0  0.015625 0.09375 0  0.03125 0.09375 0  0.046875 0.09375 0  0.0625 0.09375 0  0.078125 0.09375 0  0.09375 0.09375 0  0.109375 0.09375 0  0.125 0.09375 0  0.140625 0.09375 0  0.15625 0.09375 0  0.171875 0.09375 0  0.1875 0.09375 0  0.203125 0.09375 0  0.21875 0.09375 0  0.234375 0.09375 0  0.25 0.09375 0  0.265625 0.09375 0  0.28125 0.09375 0  0.296875 0.09375 0  0.3125 0.09375 0  0.328125 0.09375 0  0.34375 0.09375 0  0.359375 0.09375 0  0.375 0.09375 0  0.390625 0.09375 0  0.40625 0.09375 0  0.421875 0.09375 0  0.4375 0.09375 0  0.453125 0.09375 0  0.46875 0.09375 0  0.484375 0.09375 0  0.5 0.09375 0  0.515625 0.09375 0  0.53125 0.09375 0  0.546875 0.09375 0  0.5625 0.09375 0  0.578125 0.09375 0  0.59375 0.09375 0  0.609375 0.09375 0  0.625 0.09375 0  0.640625 0.09375 0  0.65625 0.09375 0  0.671875 0.09375 0  0.6875 0.09375 0  0.703125 0.09375 0  0.71875 0.09375 0  0.734375 0.09375 0  0.75 0.09375 0  0.765625 0.09375 0  0.78125 0.09375 0  0.796875 0.09375 0  0.8125 0.09375 0  0.828125 0.09375 0  0.84375 0.09375 0  0.859375 0.09375 0  0.875 0.09375 0  0.890625 0.09375 0  0.90625 0.09375 0  0.921875 0.09375 0  0.9375 0.09375 0  0.953125 0.09375 0  0.96875 0.09375 0  0.984375 0.09375 0  1 0.09375 0  0 0.109375 0  0.015625 0.109375 0  0.03125 0.109375 0  0.046875 0.109375 0  0.0625 0.109375 0  0.078125 0.109375 0  0.09375 0.109375 0  0.109375 0.109375 0  0.125 0.109375 0  0.140625 0.109375 0  0.15625 0.109375 0  0.171875 0.109375 0  0.1875 0.109375 0  0.203125 0.109375 0  0.21875 0.109375 0  0.234375 0.109375 0  0.25 0.109375 0  0.265625 0.109375 0  0.28125 0.109375 0  0.296875 0.109375 0  0.3125 0.109375 0  0.328125 0.109375 0  0.34375 0.109375 0  0.359375 0.109375 0  0.375 0.109375 0  0.390625 0.109375 0  0.40625 0.109375 0  0.421875 0.109375 0  0.4375 0.109375 0  0.453125 0.109375 0  0.46875 0.109375 0  0.484375 0.109375 0  0.5 0.109375 0  0.515625 0.109375 0  0.53125 0.109375 0  0.546875 0.109375 0  0.5625 0.109375 0  0.578125 0.109375 0  0.59375 0.109375 0  0.609375 0.109375 0  0.625 0.109375 0  0.640625 0.109375 0  0.65625 0.109375 0  0.671875 0.109375 0  0.6875 0.109375 0  0.703125 0.109375 0  0.71875 0.109375 0  0.734375 0.109375 0  0.75 0.109375 0  0.765625 0.109375 0  0.78125 0.109375 0  0.796875 0.109375 0  0.8125 0.109375 0  0.828125 0.109375 0  0.84375 0.109375 0  0.859375 0.109375 0  0.875 0.109375 0  0.890625 0.109375 0  0.90625 0.109375 0  0.921875 0.109375 0  0.9375 0.109375 0  0.953125 0.109375 0  0.96875 0.109375 0  0.984375 0.109375 0  1 0.109375 0  0 0.125 0  0.015625 0.125 0  0.03125 0.125 0  0.046875 0.125 0  0.0625 0.125 0  0.078125 0.125 0  0.09375 0.125 0  0.109375 0.125 0  0.125 0.12
[...]
<PointData  Scalars="gamma"> 
<DataArray  type="Float64"  Name="gamma"  format="ascii">3.2847642334130316e+04  3.2438106372577869e+04  3.2037804879666135e+04  3.1647852161494709e+04  3.1268827475551574e+04  3.0900843255789205e+04  3.0543646904240581e+04  3.0196748200399859e+04  2.9859562092936470e+04  2.9531555035038225e+04  2.9212382300620568e+04  2.8902004023136538e+04  2.8600769097732889e+04  2.8309458530795662e+04  2.8029283125849139e+04  2.7761834255973252e+04  2.7508990500994223e+04  2.7272786710578970e+04  2.7055255227213438e+04  2.6858251308747684e+04  2.6683276113321353e+04  2.6531310974160504e+04  2.6402676224014260e+04  2.6296926695336635e+04  2.6212794363325942e+04  2.6148186479813045e+04  2.6100244941132085e+04  2.6065469453084974e+04  2.6039903213030935e+04  2.6019375323951284e+04  2.5999789161366756e+04  2.5977440827210790e+04  2.5949347255974521e+04  2.5913560234513916e+04  2.5869441297707213e+04  2.5817873720301191e+04  2.5761391833200425e+04  2.5704214367160257e+04  2.5652176695329985e+04  2.5612565550872459e+04  2.5593867708677571e+04  2.5605450019062358e+04  2.5657191224839647e+04  2.5759085921123700e+04  2.5920838225179836e+04  2.6151458189126708e+04  2.6458869066204617e+04  2.6849529673740886e+04  2.7328074498569556e+04  2.7896975575260167e+04  2.8556234548255718e+04  2.9303119945779788e+04  3.0131972073013385e+04  3.1034104097691092e+04  3.1997830721987470e+04  3.3008653478107568e+04  3.4049623096314652e+04  3.5101884687049846e+04  3.6145392117534211e+04  3.7159756642071792e+04  3.8125175047582023e+04  3.9023367888764260e+04  3.9838451730547880e+04  4.0557672282301290e+04  4.1171937791895572e+04  3.2850584918938614e+04  3.2440083958578482e+04  3.2035933771385637e+04  3.1638530040889804e+04  3.1247744177304412e+04  3.0863025891395329e+04  3.0483541654151708e+04  3.0108339128778120e+04  2.9736524990890179e+04  2.9367441720287530e+04  2.9000828229876235e+04  2.8636949802301926e+04  2.8276684814669723e+04  2.7921559055347716e+04  2.7573722791599834e+04  2.7235870680629450e+04  2.6911109573039885e+04  2.6602783671892736e+04  2.6314269914149292e+04  2.6048758548603688e+04  2.5809034635696473e+04  2.5597275743726597e+04  2.5414879765384292e+04  2.5262334879283004e+04  2.5139141526496231e+04  2.5043794014711391e+04  2.4973826980216465e+04  2.4925929258897129e+04  2.4896124502660070e+04  2.4880013939571752e+04  2.4873072002837962e+04  2.4870980403011246e+04  2.4869981143893976e+04  2.4867224777799682e+04  2.4861087744389104e+04  2.4851432707902379e+04  2.4839788833164850e+04  2.4829434846566903e+04  2.4825375865945811e+04  2.4834214204536089e+04  2.4863923221367721e+04  2.4923540382019804e+04  2.5022799928945147e+04  2.5171726461367667e+04  2.5380208542050477e+04  2.5657567120779531e+04  2.6012128517463516e+04  2.6450807539595098e+04  2.6978704433594186e+04  2.7598720686975532e+04  2.8311203348787465e+04  2.9113634783935606e+04  3.0000393052358624e+04  3.0962615215922458e+04  3.1988199398920551e+04  3.3061979219006942e+04  3.4166094964470038e+04  3.5280569637760309e+04  3.6384076284445924e+04  3.7454858892123062e+04  3.8471746534835125e+04  3.9415183477566265e+04  4.0268190031394952e+04  4.1017171944746915e+04  4.1652509959558265e+04  3.2901615216670492e+04  3.2494373978125615e+04  3.2090407210330846e+04  3.1689290589983670e+04  3.1290087477855588e+04  3.0891491196979958e+04  3.0492006036723593e+04  3.0090154677102157e+04  2.9684696545447081e+04  2.9274839480898765e+04  2.8860426377911848e+04  2.8442079493951776e+04  2.8021287938655514e+04  2.7600428360183309e+04  2.7182714585638103e+04  2.6772078301537847e+04  2.6372988993577426e+04  2.5990226533430756e+04  2.5628623402056699e+04  2.5292795258254195e+04  2.4986878422766102e+04  2.4714291188911135e+04  2.4477533235876730e+04  2.4278034412733625e+04  2.4116061280338796e+04  2.3990687318828837e+04  2.3899830621057426e+04  2.3840360928757582e+04  2.3808275602703990e+04  2.3798941123152646e+04  2.3807392735044745e+04  2.3828679940993792e+04  2.3858240148566420e+04  2.3892277699817005e+04  2.3928121771408569e+04  2.3964535241238391e+04  2.4001948297712876e+04  2.4042595525128036e+04  2.4090542983674208e+04  2.4151601337194570e+04  2.4233130853137332e+04  2.4343752485583042e+04  2.4492984901661832e+04  2.4690829472494319e+04  2.4947323965464639e+04  2.5272081789027896e+04  2.5673828612737190e+04  2.6159943755148168e+04  2.6736011523639791e+04  2.7405388818323947e+04  2.8168800080307079e+04  2.9023978398300907e+04  2.9965380648123431e+04  3.0984012539250380e+04  3.2067403663756151e+04  3.3199770620803356e+04  3.4362396459702046e+04  3.5534236942849035e+04  3.6692740133030398e+04  3.7814838873882152e+04  3.8878050293934262e+04  3.9861597191981622e+04  4.0747456929759130e+04  4.1521246454583859e+04  4.2172867277373436e+04  3.2992205383215995e+04  3.2592496073545219e+04  3.2192927946006803e+04  3.1792160402918973e+04  3.1388350045898569e+04  3.0979338113841430e+04  3.0562880268597830e+04  3.0136903566415749e+04  2.9699771595201735e+04  2.9250536211966009e+04  2.8789153615034076e+04  2.8316644020455322e+04  2.7835178103353552e+04  2.7348079378266124e+04  2.6859739215120208e+04  2.6375449295057238e+04  2.5901163919006569e+04  2.5443210656560132e+04  2.5007971590779478e+04  2.4601558528985290e+04  2.4229504154379963e+04  2.3896487772042667e+04  2.3606109922033200e+04  2.3360725622085432e+04  2.3161342130653400e+04  2.3007584319151865e+04  2.2897729021731739e+04  2.2828808709696743e+04  2.2796783866073067e+04  2.2796781794456881e+04  2.2823396721007808e+04  2.2871041732080506e+04  2.2934337608674126e+04  2.3008517743021355e+04  2.3089823192315536e+04  2.3175858802729810e+04  2.3265881289811074e+04  2.3360993746221891e+04  2.3464228097915813e+04  2.3580506611546705e+04  2.3716484128825214e+04  2.3880282456592427e+04  2.4081135623102640e+04  2.4328968439462373e+04  2.4633930745663423e+04  2.5005906555439717e+04  2.5454012486389885e+04  2.5986095233935641e+04  2.6608235256268701e+04  2.7324264639728557e+04  2.8135311814813129e+04  2.9039393820996134e+04  3.0031086503575345e+04  3.1101311809534542e+04  3.2237286234898635e+04  3.3422672674628768e+04  3.4637967593360045e+04  3.5861136323299419e+04  3.7068483119959310e+04  3.8235712965042476e+04  3.9339113896204944e+04  4.0356767075809039e+04  4.1269681252701987e+04  4.2062751228761990e+04  4.2725456455918225e+04  3.3111033979099971e+04  3.2723058690812712e+04  3.2332198706486652e+04  3.1936110137658066e+04  3.1531948733718600e+04  3.1116607697334042e+04  3.0687002560629877e+04  3.0240384641620229e+04  2.9774659862186938e+04  2.9288686609779779e+04  2.8782525590029043e+04  2.8257616770752298e+04  2.7716863712621773e+04  2.7164613479540632e+04  2.6606530068276577e+04  2.6049369621918475e+04  2.5500675126604121e+04  2.4968415460253786e+04  2.4460597577940858e+04  2.3984880898913983e+04  2.3548219907939365e+04  2.3156555501848761e+04  2.2814568978255567e+04  2.2525506120709779e+04  2.2291073683667742e+04  2.2111407344992331e+04  2.1985108910406227e+04  2.1909350706640911e+04  2.1880045775696017e+04  2.1892082619891989e+04  2.1939621917406803e+04  2.2016449297070190e+04  2.2116372976541483e+04  2.2233648517398560e+04  2.2363406365320800e+04  2.2502052745430246e+04  2.2647612320259104e+04  2.2799982773647396e+04  2.2961077364244800e+04  2.3134840794816941e+04  2.3327134962336517e+04  2.3545502310952823e+04  2.3798823633534870e+04  2.4096892788141824e+04  2.4449932323467518e+04  2.4868071885422843e+04  2.5360806873410718e+04  2.5936450081138486e+04  2.6601586041638388e+04  2.7360538122867463e+04  2.8214862836054628e+04  2.9162893903277814e+04  3.0199368727749999e+04  3.1315179327852638e+04  3.2497295281178511e+04  3.3728904672683122e+04  3.4989808317760442e+04  3.6257082219877273e+04  3.7505995063406663e+04  3.8711135377688355e+04  3.9847672164702832e+04  4.0892648991714130e+04  4.1826199666410830e+04  4.2632576469512765e+04  4.3300899641126583e+04  3.3244277326440053e+04  3.2872036798183748e+04  3.2494182218188304e+04  3.2107293657555078e+04  3.1707440704260251e+04  3.1290475189642802e+04  3.0852377120089324e+04  3.0389631608128060e+04  2.9899608733417022e+04  2.9380914418411259e+04  2.8833679545488940e+04  2.8259757373647557e+04  2.7662806035999740e+04  2.7048243055456162e+04  2.6423071256475727e+04  2.5795588477312896e+04  2.5175005151098158e+04  2.4571002323524939e+04  2.3993266751826133e+04  2.3451038958136305e+04  2.2952704992252595e+04  2.2505454496946193e+04  2.2115018249705743e+04  2.1785489528167083e+04  2.1519226914299921e+04  2.1316832364364389e+04  2.1177197590816322e+04  2.1097613352701195e+04  2.1073938918319287e+04  2.1100831297160366e+04  2.1172034492064675e+04  2.1280727081038920e+04  2.1419921660498891e+04  2.1582902618543012e+04  2.1763680642426014e+04  2.1957435071649194e+04  2.2160910548276017e+04  2.2372733866799175e+04  2.2593621160173047e+04  2.2826454202685305e+04  2.3076216268897071e+04  2.3349790551812992e+04  2.3655635307780311e+04  2.4003357747498365e+04  2.4403212204022569e+04  2.4865547396773618e+04  2.5400223896086220e+04  2.6016018174100151e+04  2.6720026157182390e+04  2.7517078883839866e+04  2.8409186752939786e+04  2.9395036703625537e+04  3.0469576913406883e+04  3.1623733456052752e+04  3.2844309351659482e+04  3.4114115162690214e+04  3.5412369314400174e+04  3.6715385034819599e+04  3.7997530940446501e+04  3.9232417874154438e+04  4.0394231337954589e+04  4.1459102971651439e+04  4.2406401334199458e+04  4.3219824915128367e+04  4.3888199067811576e+04  3.3376096961545853e+04  3.3023250179407994e+04  3.2662563198240332e+04  3.2289487202618391e+04  3.1898934199914122e+04  3.1485627981054284e+04  3.1044516202585790e+04  3.0571217373996478e+04  3.0062469262219969e+04  2.9516540384135787e+04  2.8933565122491280e+04  2.8315766503404626e+04  2.7667539096309316e+04  2.6995377255121792e+04  2.6307649522529926e+04  2.5614236258489764e+04  2.4926061898359909e+04  2.4254563369838623e+04  2.3611140505147167e+04  2.3006632287170651e+04  2.2450855202669438e+04  2.1952228625160024e+04  2.1517499413606532e+04  2.1151566246436487e+04  2.0857395588532570e+04  2.0636016721281529e+04  2.0486583038937526e+04  2.0406489965884044e+04  2.0391544823845998e+04  2.0436188894279923e+04  2.0533774974744243e+04  2.0676903572763698e+04  2.0857816933665974e+04  2.1068842716441228e+04  2.1302869603643237e+04  2.1553827460383232e+04  2.1817137136484409e+04  2.2090091669313453e+04  2.2372132727940665e+04  2.2664993702892698e+04  2.2972692694383419e+04  2.3301372593993412e+04  2.3658998848378473e+04  2.4054935928930350e+04  2.4499429455455571e+04  2.5003022028545747e+04  2.5575928104747352e+04  2.6227388693291548e+04  2.6965022703968374e+04  2.7794190651627709e+04  2.8717389487338511e+04  2.9733704626862498e+04  3.0838355328201753e+04  3.2022379624134133e+04  3.3272511391094347e+04  3.4571301152386797e+04  3.5897521150287568e+04  3.7226873246140036e+04  3.8532986974156331e+04  3.9788658747027926e+04  4.0967247810644338e+04  4.2044116720861100e+04  4.2997989636018312e+04  4.3812104088152075e+04  4.4475051478401496e+04  3.3489329888351531e+04  3.3159052228533772e+04  3.2819425337943903e+04  3.2464744354407027e+04  3.2088711901192790e+04  3.1684848838181693e+04  3.1246976120571300e+04  3.0769737447496442e+04  3.0249123392331247e+04  2.9682951562950417e+04  2.9071255690224432e+04  2.8416540614718935e+04  2.7723870342331884e+04  2.7000771969735826e+04  2.6256957475307656e+04  2.5503885335017880e+04  2.4754201438697681e+04  2.4021110893539517e+04  2.3317736992831422e+04  2.2656520313381145e+04  2.2048700580696714e+04  2.1503908944102168e+04  2.1029881748716667e+04  2.0632291940779032e+04  2.0314683420359594e+04  2.0078488365819339e+04  1.9923107904986624e+04  1.9846041423067170e+04  1.9843057345650206e+04  1.9908406070633573e+04  2.0035081549315750e+04  2.0215140020340161e+04  2.0440081606773299e+04  2.0701293000171954e+04  2.0990538515504122e+04  2.1300474605459392e+04  2.1625152202356308e+04  2.1960464655655938e+04  2.2304498444785266e+04  2.2657749878357135e+04  2.3023182746748229e+04  2.3406117162121656e+04  2.3813955624381917e+04  2.4255765735796649e+04  2.4741747782537284e+04  2.5282618773078229e+04  2.5888943137387971e+04  2.6570436071407057e+04  2.7335261066759984e+04  2.8189341040664072e+04  2.9135704418198675e+04  3.0173893895335157e+04  3.1299475173386956e+04  3.2503692933479157e+04  3.3773327936708250e+04  3.5090808467676594e+04  3.6434618374274811e+04  3.7780021614152283e+04  3.9100091027795585e+04  4.0366991236356873e+04  4.1553428366084016e+04  4.2634149748539559e+04  4.3587361013014357e+04  4.4395929913894128e+04  4.5048266355755630e+04  3.3566368715179342e+04  3.3261219295040282e+04  3.2946136610261718e+04  3.2614263545089350e+04  3.2258066964710531e+04  3.1869807527196910e+04  3.1442092865296872e+04  3.0968479890354964e+04  3.0444080940379718e+04  2.9866120688102063e+04  2.9234388229532015e+04  2.8551533189404025e+04  2.7823166604828992e+04  2.7057746001727668e+04  2.6266247209652625e+04  2.5461649627471310e+04  2.4658282854805740e+04  2.3871097142064609e+04  2.3114925451965853e+04  2.2403800329819464e+04  2.1750375505079312e+04  2.1165483141939283e+04  2.0657836844671529e+04  2.0233871874389679e+04  1.9897700697860444e+04  1.9651155706764817e+04  1.9493891849658139e+04  1.9423528698856619e+04  1.9435821794750442e+04  1.9524864133839903e+04  1.9683327583009788e+04  1.9902758500680280e+04  2.0173940517152401e+04  2.0487330063976267e+04  2.0833557971792139e+04  2.1203975626111147e+04  2.1591209942538932e+04  2.1989681098101573e+04  2.2396033173752759e+04  2.2809431896047128e+04  2.3231695027380516e+04  2.3667237479590844e+04  2.4122831621320525e+04  2.4607199962249830e+04  2.5130469549569105e+04  2.5703523527655409e+04  2.6337285630240505e+04  2.7041969681536102e+04  2.7826321228571494e+04  2.8696875099313165e+04  2.9657253152911413e+04  3.0707531537282619e+04  3.1843715422581208e+04  3.3057368776547846e+04  3.4335453446245287e+04  3.5660431477424318e+04  3.7010673940574205e+04  3.8361197182871896e+04  3.9684714731378779e+04  4.0952954221148386e+04  4.2138150115673932e+04  4.3214591938120779e+04  4.4160090780584360e+04  4.4957228177837198e+04  4.5594271763165612e+04  3.3590193971044726e+04  3.3312004850459045e+04  3.3024409994748559e+04  3.2719438767695523e+04  3.2388326538010198e+04  3.2022040133661732e+04  3.1611901264989887e+04  3.1150270228626912e+04  3.0631238826373563e+04  3.0051271564337920e+04  2.9409730431575474e+04  2.8709222952031469e+04  2.7955726631942311e+04  2.7158464587153976e+04  2.6329534413801186e+04  2.5483321139677540e+04  2.4635750496427594e+04  2.3803456229101375e+04  2.3002941546389186e+04  2.2249809140168116e+04  2.1558117955267811e+04  2.0939901659916501e+04  2.0404858359314923e+04  1.9960198378943682e+04  1.9610620778396238e+04  1.9358381768621224e+04  1.9203419568913723e+04  1.9143508902822468e+04  1.9174431536420932e+04  1.9290163664482647e+04  1.9483093208739341e+04  1.9744287377634664e+04  2.0063831265491172e+04  2.0431251261575275e+04  2.0836023541204791e+04  2.1268150366281829e+04  2.1718768909030383e+04  2.2180742825423178e+04  2.2649179320891039e+04  2.3121816022718012e+04  2.3599232637864385e+04  2.4084860092316918e+04  2.4584781021962663e+04  2.5107335920475904e+04  2.5662565265258832e+04  2.6261527303814881e+04  2.6915533594177232e+04  2.7635341426962630e+04  2.8430336775682274e+04  2.9307736675133612e+04  3.0271838572747150e+04  3.1323347489270021e+04  3.2458819153847293e+04  3.3670266171098636e+04  3.4944980886141704e+04  3.6265628633339991e+04  3.7610654909193247e+04  3.8955028032751630e+04  4.0271306142004745e+04  4.1530977989081613e+04  4.2705987395060009e+04  4.3770318930540416e+04  4.4701504256872882e+04  4.5481909096085546e+04  4.6099680982417529e+04  3.3545494269865245e+04  3.3295294458043216e+04  3.3037477281061249e+04  3.2763034207254044e+04  3.2462007835194872e+04  3.2124066671017805e+04  3.1739194678507334e+04  3.1298455313483730e+04  3.0794773763257926e+04  3.0223668764110909e+04  2.9583859823873707e+04  2.8877679538133078e+04  2.8111235209602284e+04  2.7294288434442813e+04  2.6439852779108900e+04  2.5563543336848063e+04  2.4682742035760039e+04  2.3815663556377855e+04  2.2980414689747500e+04  2.2194133611123099e+04  2.1472276512517477e+04  2.0828091551125246e+04  2.0272289861684549e+04  1.9812896295333994e+04  1.9455243233761452e+04  1.9202061865058218e+04  1.9053626948062934e+04  1.9007921553293370e+04  1.9060804369445232e+04  1.9206180048395545e+04  1.9436188847470541e+04  1.9741442145239325e+04  2.0111332857579127e+04  2.0534443352216433e+04  2.0999058845294276e+04  2.1493773945395518e+04  2.2008157962035621e+04  2.2533425539158747e+04  2.3063047508251966e+04  2.3593235529031004e+04  2.4123243770930363e+04  2.4655449748541065e+04  2.5195200577903877e+04  2.5750435486285540e+04  2.6331115805110450e+04  2.6948506793508004e+04  2.7614360536821361e+04  2.8340047122910419e+04  2.9135675265038695e+04  3.0009237142858772e+04  3.0965808672309329e+04  3.2006837502161659e+04  3.3129556609090847e+04  3.4326569216687560e+04  3.5585657105125509e+04  3.6889864768107909e+04  3.8217902461479520e+04  3.9544889969449738e+04  4.0843430669805472e+04  4.2084966067978406e+04  4.3241320799105088e+04  4.4286314818216881e+04  4.5197300230397756e+04  4.5956479776859771e+04  4.6551883660620129e+04  3.3419786273758735e+04  3.3197771722904537e+04  3.2971286117118631e+04  3.2730394861732013e+04  3.2464022708822478e+04  3.2160568673620877e+04  3.1808654378175965e+04  3.1397964121915531e+04  3.0920116185420575e+04  3.0369489646149908e+04  2.9743923090783101e+04  2.9045204289851004e+04  2.8279284906557306e+04  2.7456181113543873e+04  2.6589556448047279e+04  2.5696021914621731e+04  2.4794223512383149e+04  2.3903812462540831e+04  2.3044403644333364e+04  2.2234621316397504e+04  2.1491309812808497e+04  2.0828955353875212e+04  2.0259330063009260e+04  1.9791337609293634e+04  1.9431017119994933e+04  1.9181651240168663e+04  1.9043925849615949e+04  1.9016101007973175e+04  1.9094171600710997e+04  1.9272017537950829e+04  1.9541562786167171e+04  1.9892976057040771e+04  2.0314950680877351e+04  2.0795095546741948e+04  2.1320453368170085e+04  2.1878139395724502e+04  2.2456067393864549e+04  2.3043705709187536e+04  2.3632789979418478e+04  2.4217914420908157e+04  2.4796932101427956e+04  2.5371114591477577e+04  2.5945048742132825e+04  2.6526277447145072e+04  2.7124716539364941e+04  2.7751897344870646e+04  2.8420092177746403e+04  2.9141379122157785e+04  2.9926695818450811e+04  3.0784923677112227e+04  3.1722037789335558e+04  3.2740356233464525e+04  3.3837925866219484e+04  3.5008088170415627e+04  3.6239274630030442e+04  3.7515081878934012e+04  3.8814668400765746e+04  4.0113494473954168e+04  4.1384395763091852e+04  4.2598942021343144e+04  4.3728992054293005e+04  4.4748322097162076e+04  4.5634184402247578e+04  4.6368651253377488e+04  4.6939618409353476e+04  3.3204430916711171e+04  3.3009987791776686e+04  3.2815610904534515e+04  3.2610583997974540e+04  3.2382824196751717e+04  3.2119525327513235e+04  3.1807954587700806e+04  3.1436360949867914e+04  3.0994932010597262e+04  3.0476717538288562e+04  2.9878427140779229e+04  2.9201010219681917e+04  2.8449941079012940e+04  2.7635160528373672e+04  2.6770664350373831e+04  2.5873772614799775e+04  2.4964154361951511e+04  2.4062711984382488e+04  2.3190442907066896e+04  2.2367390463510914e+04  2.1611772796626930e+04  2.0939343437017626e+04  2.0362997475183725e+04  1.9892600878523866e+04  1.9534993972292981e+04  1.9294107145746813e+04  1.9171128083967851e+04  1.9164673167968067e+04  1.9270937182179874e+04  1.9483820263694612e+04  1.9795054140708591e+04  2.0194366615991454e+04  2.0669730392442205e+04  2.1207737646928799e+04  2.1794125217728706e+04  2.2414449274093120e+04  2.3054877590188276e+04  2.3703038315608173e+04  2.4348842891709588e+04  2.4985192560057178e+04  2.5608484994078179e+04  2.6218858728569787e+04  2.6820143857025061e+04  2.7419521525358261e+04  2.8026925423108820e+04  2.8654240561587296e+04  2.9314365587320037e+04  3.0020205194970582e+04  3.0783651912724123e+04  3.161460608969910