<?xml version="1.0"?>
<VTKFile type="UnstructuredGrid"  version="0.1"  >
<UnstructuredGrid>
<Piece  NumberOfPoints="4225" NumberOfCells="8192">
<Points>
<DataArray  type="Float64"  NumberOfComponents="3"  format="ascii">0 0 0  0.015625 0 0  0.03125 0 0  0.046875 0 0  0.0625 0 0  0.078125 0 0  0.09375 0 0  0.109375 0 0  0.125 0 0  0.140625 0 0  0.15625 0 0  0.171875 0 0  0.1875 0 0  0.203125 0 0  0.21875 0 0  0.234375 0 0  0.25 0 0  0.265625 0 0  0.28125 0 0  0.296875 0 0  0.3125 0 0  0.328125 0 0  0.34375 0 0  0.359375 0 0  0.375 0 0  0.390625 0 0  0.40625 0 0  0.421875 0 0  0.4375 0 0  0.453125 0 0  0.46875 0 0  0.484375 0 0  0.5 0 0  0.515625 0 0  0.53125 0 0  0.546875 0 0  0.5625 0 0  0.578125 0 0  0.59375 0 0  0.609375 0 0  0.625 0 0  0.640625 0 0  0.65625 0 0  0.671875 0 0  0.6875 0 0  0.703125 0 0  0.71875 0 0  0.734375 0 0  0.75 0 0  0.765625 0 0  0.78125 0 0  0.796875 0 0  0.8125 0 0  0.828125 0 0  0.84375 0 0  0.859375 0 0  0.875 0 0  0.890625 0 0  0.90625 0 0  0.921875 0 0  0.9375 0 0  0.953125 0 0  0.96875 0 0  0.984375 0 0  1 0 0  0 0.015625 0  0.015625 0.015625 0  0.03125 0.015625 0  0.046875 0.015625 0  0.0625 0.015625 0  0.078125 0.015625 0  0.09375 0.015625 0  0.109375 0.015625 0  0.125 0.015625 0  0.140625 0.015625 0  0.15625 0.015625 0  0.171875 0.015625 0  0.1875 0.015625 0  0.203125 0.015625 0  0.21875 0.015625 0  0.234375 0.015625 0  0.25 0.015625 0  0.265625 0.015625 0  0.28125 0.015625 0  0.296875 0.015625 0  0.3125 0.015625 0  0.328125 0.015625 0  0.34375 0.015625 0  0.359375 0.015625 0  0.375 0.015625 0  0.390625 0.015625 0  0.40625 0.015625 0  0.421875 0.015625 0  0.4375 0.015625 0  0.453125 0.015625 0  0.46875 0.015625 0  0.484375 0.015625 0  0.5 0.015625 0  0.515625 0.015625 0  0.53125 0.015625 0  0.546875 0.015625 0  0.5625 0.015625 0  0.578125 0.015625 0  0.59375 0.015625 0  0.609375 0.015625 0  0.625 0.015625 0  0.640625 0.015625 0  0.65625 0.015625 0  0.671875 0.015625 0  0.6875 0.015625 0  0.703125 0.015625 0  0.71875 0.015625 0  0.734375 0.015625 0  0.75 0.015625 0  0.765625 0.015625 0  0.78125 0.015625 0  0.796875 0.015625 0  0.8125 0.015625 0  0.828125 0.015625 0  0.84375 0.015625 0  0.859375 0.015625 0  0.875 0.015625 0  0.890625 0.015625 0  0.90625 0.015625 0  0.921875 0.015625 0  0.9375 0.015625 0  0.953125 0.015625 0  0.96875 0.015625 0  0.984375 0.015625 0  1 0.015625 0  0 0.03125 0  0.015625 0.03125 0  0.03125 0.03125 0  0.046875 0.03125 0  0.0625 0.03125 0  0.078125 0.03125 0  0.09375 0.03125 0  0.109375 0.03125 0  0.125 0.03125 0  0.140625 0.03125 0  0.15625 0.03125 0  0.171875 0.03125 0  0.1875 0.03125 0  0.203125 0.03125 0  0.21875 0.03125 0  0.234375 0.03125 0  0.25 0.03125 0  0.265625 0.03125 0  0.28125 0.03125 0  0.296875 0.03125 0  0.3125 0.03125 0  0.328125 0.03125 0  0.34375 0.03125 0  0.359375 0.03125 0  0.375 0.03125 0  0.390625 0.03125 0  0.40625 0.03125 0  0.421875 0.03125 0  0.4375 0.03125 0  0.453125 0.03125 0  0.46875 0.03125 0  0.484375 0.03125 0  0.5 0.03125 0  0.515625 0.03125 0  0.53125 0.03125 0  0.546875 0.03125 0  0.5625 0.03125 0  0.578125 0.03125 0  0.59375 0.03125 0  0.609375 0.03125 0  0.625 0.03125 0  0.640625 0.03125 0  0.65625 0.03125 0  0.671875 0.03125 0  0.6875 0.03125 0  0.703125 0.03125 0  0.71875 0.03125 0  0.734375 0.03125 0  0.75 0.03125 0  0.765625 0.03125 0  0.78125 0.03125 0  0.796875 0.03125 0  0.8125 0.03125 0  0.828125 0.03125 0  0.84375 0.03125 0  0.859375 0.03125 0  0.875 0.03125 0  0.890625 0.03125 0  0.90625 0.03125 0  0.921875 0.03125 0  0.9375 0.03125 0  0.953125 0.03125 0  0.96875 0.03125 0  0.984375 0.03125 0  1 0.03125 0  0 0.046875 0  0.015625 0.046875 0  0.03125 0.046875 0  0.046875 0.046875 0  0.0625 0.046875 0  0.078125 0.046875 0  0.09375 0.046875 0  0.109375 0.046875 0  0.125 0.046875 0  0.140625 0.046875 0  0.15625 0.046875 0  0.171875 0.046875 0  0.1875 0.046875 0  0.203125 0.046875 0  0.21875 0.046875 0  0.234375 0.046875 0  0.25 0.046875 0  0.265625 0.046875 0  0.28125 0.046875 0  0.296875 0.046875 0  0.3125 0.046875 0  0.328125 0.046875 0  0.34375 0.046875 0  0.359375 0.046875 0  0.375 0.046875 0  0.390625 0.046875 0  0.40625 0.046875 0  0.421875 0.046875 0  0.4375 0.046875 0  0.453125 0.046875 0  0.46875 0.046875 0  0.484375 0.046875 0  0.5 0.046875 0  0.515625 0.046875 0  0.53125 0.046875 0  0.546875 0.046875 0  0.5625 0.046875 0  0.578125 0.046875 0  0.59375 0.046875 0  0.609375 0.046875 0  0.625 0.046875 0  0.640625 0.046875 0  0.65625 0.046875 0  0.671875 0.046875 0  0.6875 0.046875 0  0.703125 0.046875 0  0.71875 0.046875 0  0.734375 0.046875 0  0.75 0.046875 0  0.765625 0.046875 0  0.78125 0.046875 0  0.796875 0.046875 0  0.8125 0.046875 0  0.828125 0.046875 0  0.84375 0.046875 0  0.859375 0.046875 0  0.875 0.046875 0  0.890625 0.046875 0  0.90625 0.046875 0  0.921875 0.046875 0  0.9375 0.046875 0  0.953125 0.046875 0  0.96875 0.046875 0  0.984375 0.046875 0  1 0.046875 0  0 0.0625 0  0.015625 0.0625 0  0.03125 0.0625 0  0.046875 0.0625 0  0.0625 0.0625 0  0.078125 0.0625 0  0.09375 0.0625 0  0.109375 0.0625 0  0.125 0.0625 0  0.140625 0.0625 0  0.15625 0.0625 0  0.171875 0.0625 0  0.1875 0.0625 0  0.203125 0.0625 0  0.21875 0.0625 0  0.234375 0.0625 0  0.25 0.0625 0  0.265625 0.0625 0  0.28125 0.0625 0  0.296875 0.0625 0  0.3125 0.0625 0  0.328125 0.0625 0  0.34375 0.0625 0  0.359375 0.0625 0  0.375 0.0625 0  0.390625 0.0625 0  0.40625 0.0625 0  0.421875 0.0625 0  0.4375 0.0625 0  0.453125 0.0625 0  0.46875 0.0625 0  0.484375 0.0625 0  0.5 0.0625 0  0.515625 0.0625 0  0.53125 0.0625 0  0.546875 0.0625 0  0.5625 0.0625 0  0.578125 0.0625 0  0.59375 0.0625 0  0.609375 0.0625 0  0.625 0.0625 0  0.640625 0.0625 0  0.65625 0.0625 0  0.671875 0.0625 0  0.6875 0.0625 0  0.703125 0.0625 0  0.71875 0.0625 0  0.734375 0.0625 0  0.75 0.0625 0  0.765625 0.0625 0  0.78125 0.0625 0  0.796875 0.0625 0  0.8125 0.0625 0  0.828125 0.0625 0  0.84375 0.0625 0  0.859375 0.0625 0  0.875 0.0625 0  0.890625 0.0625 0  0.90625 0.0625 0  0.921875 0.0625 0  0.9375 0.0625 0  0.953125 0.0625 0  0.96875 0.0625 0  0.984375 0.0625 0  1 0.0625 0  0 0.078125 0  0.015625 0.078125 0  0.03125 0.078125 0  0.046875 0.078125 0  0.0625 0.078125 0  0.078125 0.078125 0  0.09375 0.078125 0  0.109375 0.078125 0  0.125 0.078125 0  0.140625 0.078125 0  0.15625 0.078125 0  0.171875 0.078125 0  0.1875 0.078125 0  0.203125 0.078125 0  0.21875 0.078125 0  0.234375 0.078125 0  0.25 0.078125 0  0.265625 0.078125 0  0.28125 0.078125 0  0.296875 0.078125 0  0.3125 0.078125 0  0.328125 0.078125 0  0.34375 0.078125 0  0.359375 0.078125 0  0.375 0.078125 0  0.390625 0.078125 0  0.40625 0.078125 0  0.421875 0.078125 0  0.4375 0.078125 0  0.453125 0.078125 0  0.46875 0.078125 0  0.484375 0.078125 0  0.5 0.078125 0  0.515625 0.078125 0  0.53125 0.078125 0  0.546875 0.078125 0  0.5625 0.078125 0  0.578125 0.078125 0  0.59375 0.078125 0  0.609375 0.078125 0  0.625 0.078125 0  0.640625 0.078125 0  0.65625 0.078125 0  0.671875 0.078125 0  0.6875 0.078125 0  0.703125 0.078125 0  0.71875 0.078125 0  0.734375 0.078125 0  0.75 0.078125 0  0.765625 0.078125 0  0.78125 0.078125 0  0.796875 0.078125 0  0.8125 0.078125 0  0.828125 0.078125 0  0.84375 0.078125 0  0.859375 0.078125 0  0.875 0.078125 0  0.890625 0.078125 0  0.90625 0.078125 0  0.921875 0.078125 0  0.9375 0.078125 0  0.953125 0.078125 0  0.96875 0.078125 0  0.984375 0.078125 0  1 0.078125 0  0 0.09375 0  0.015625 0.09375 0  0.03125 0.09375 0  0.046875 0.09375 0  0.0625 0.09375 0  0.078125 0.09375 0  0.09375 0.09375 0  0.109375 0.09375 0  0.125 0.09375 0  0.140625 0.09375 0  0.15625 0.09375 0  0.171875 0.09375 0  0.1875 0.09375 0  0.203125 0.09375 0  0.21875 0.09375 0  0.234375 0.09375 0  0.25 0.09375 0  0.265625 0.09375 0  0.28125 0.09375 0  0.296875 0.09375 0  0.3125 0.09375 0  0.328125 0.09375 0  0.34375 0.09375 0  0.359375 0.09375 0  0.375 0.09375 0  0.390625 0.09375 0  0.40625 0.09375 0  0.421875 0.09375 0  0.4375 0.09375 0  0.453125 0.09375 0  0.46875 0.09375 0  0.484375 0.09375 0  0.5 0.09375 0  0.515625 0.09375 0  0.53125 0.09375 0  0.546875 0.09375 0  0.5625 0.09375 0  0.578125 0.09375 0  0.59375 0.09375 0  0.609375 0.09375 0  0.625 0.09375 0  0.640625 0.09375 0  0.65625 0.09375 0  0.671875 0.09375 0  0.6875 0.09375 0  0.703125 0.09375 0  0.71875 0.09375 0  0.734375 0.09375 0  0.75 0.09375 0  0.765625 0.09375 0  0.78125 0.09375 0  0.796875 0.09375 0  0.8125 0.09375 0  0.828125 0.09375 0  0.84375 0.09375 0  0.859375 0.09375 0  0.875 0.09375 0  0.890625 0.09375 0  0.90625 0.09375 0  0.921875 0.09375 0  0.9375 0.09375 0  0.953125 0.09375 0  0.96875 0.09375 0  0.984375 0.09375 0  1 0.09375 0  0 0.109375 0  0.015625 0.109375 0  0.03125 0.109375 0  0.046875 0.109375 0  0.0625 0.109375 0  0.078125 0.109375 0  0.09375 0.109375 0  0.109375 0.109375 0  0.125 0.109375 0  0.140625 0.109375 0  0.15625 0.109375 0  0.171875 0.109375 0  0.1875 0.109375 0  0.203125 0.109375 0  0.21875 0.109375 0  0.234375 0.109375 0  0.25 0.109375 0  0.265625 0.109375 0  0.28125 0.109375 0  0.296875 0.109375 0  0.3125 0.109375 0  0.328125 0.109375 0  0.34375 0.109375 0  0.359375 0.109375 0  0.375 0.109375 0  0.390625 0.109375 0  0.40625 0.109375 0  0.421875 0.109375 0  0.4375 0.109375 0  0.453125 0.109375 0  0.46875 0.109375 0  0.484375 0.109375 0  0.5 0.109375 0  0.515625 0.109375 0  0.53125 0.109375 0  0.546875 0.109375 0  0.5625 0.109375 0  0.578125 0.109375 0  0.59375 0.109375 0  0.609375 0.109375 0  0.625 0.109375 0  0.640625 0.109375 0  0.65625 0.109375 0  0.671875 0.109375 0  0.6875 0.109375 0  0.703125 0.109375 0  0.71875 0.109375 0  0.734375 0.109375 0  0.75 0.109375 0  0.765625 0.109375 0  0.78125 0.109375 0  0.796875 0.109375 0  0.8125 0.109375 0  0.828125 0.109375 0  0.84375 0.109375 0  0.859375 0.109375 0  0.875 0.109375 0  0.890625 0.109375 0  0.90625 0.109375 0  0.921875 0.109375 0  0.9375 0.109375 0  0.953125 0.109375 0  0.96875 0.109375 0  0.984375 0.109375 0  1 0.109375 0  0 0.125 0  0.015625 0.125 0  0.03125 0.125 0  0.046875 0.125 0  0.0625 0.125 0  0.078125 0.125 0  0.09375 0.125 0  0.109375 0.125 0  0.125 0.12
[...]
<PointData  Scalars="gamma"> 
<DataArray  type="Float64"  Name="gamma"  format="ascii">4.9701936089972885e+04  4.9119946456469879e+04  4.8338114690222515e+04  4.7372321593501627e+04  4.6246669667298069e+04  4.4992256235896362e+04  4.3645444653836617e+04  4.2245807044151807e+04  4.0833945350168142e+04  3.9449399148975950e+04  3.8128819282251097e+04  3.6904532759208982e+04  3.5803557985575790e+04  3.4847063352736368e+04  3.4050208460412316e+04  3.3422273830694168e+04  3.2966974920711313e+04  3.2682867610236910e+04  3.2563779401198793e+04  3.2599235516611509e+04  3.2774883747807595e+04  3.3072949080904218e+04  3.3472763603273845e+04  3.3951416310038818e+04  3.4484551505753749e+04  3.5047316779520421e+04  3.5615427744562396e+04  3.6166284047744135e+04  3.6680046738939731e+04  3.7140576530048798e+04  3.7536138487645221e+04  3.7859800529985419e+04  3.8109486736408384e+04  3.8287685702822615e+04  3.8400852046618777e+04  3.8458569567224346e+04  3.8472563439051832e+04  3.8455654730543720e+04  3.8420744642426158e+04  3.8379901175995925e+04  3.8343601433047384e+04  3.8320162273775633e+04  3.8315373591060976e+04  3.8332333662352576e+04  3.8371475247835893e+04  3.8430763631102403e+04  3.8506042445779174e+04  3.8591498717699651e+04  3.8680214343049876e+04  3.8764767155218673e+04  3.8837841399977246e+04  3.8892805862306879e+04  3.8924219156691026e+04  3.8928226569608218e+04  3.8902821463166154e+04  3.8847955985900226e+04  3.8765499378447545e+04  3.8659055768978644e+04  3.8533665227311314e+04  3.8395420502681358e+04  3.8251036418592346e+04  3.8107409169929095e+04  3.7971199267424716e+04  3.7848465595266956e+04  3.7744370209069151e+04  5.0836255210773634e+04  5.0204272768195886e+04  4.9351411012725905e+04  4.8295513636102580e+04  4.7063611463358509e+04  4.5690499784016771e+04  4.4216746937297139e+04  4.2686338968278105e+04  4.1144203197309675e+04  3.9633853767617984e+04  3.8195365549679154e+04  3.6863817603507261e+04  3.5668267605629873e+04  3.4631240145256939e+04  3.3768648766423510e+04  3.3090033532841495e+04  3.2598985976415697e+04  3.2293648869247572e+04  3.2167212253679041e+04  3.2208370234221878e+04  3.2401745581989013e+04  3.2728322887393926e+04  3.3165949738667470e+04  3.3689966020926178e+04  3.4274004037933300e+04  3.4890970248335754e+04  3.5514179424159054e+04  3.6118572302967201e+04  3.6681916864964231e+04  3.7185878118009445e+04  3.7616845360140374e+04  3.7966428862677305e+04  3.8231575417547865e+04  3.8414297086098079e+04  3.8521051614426164e+04  3.8561849018074499e+04  3.8549181778351696e+04  3.8496884009174624e+04  3.8419018959626883e+04  3.8328877727207262e+04  3.8238149647781800e+04  3.8156301048707399e+04  3.8090177470710463e+04  3.8043827152094425e+04  3.8018531048154204e+04  3.8013016244091756e+04  3.8023823985630515e+04  3.8045799340710299e+04  3.8072665817057692e+04  3.8097644908204020e+04  3.8114078046036659e+04  3.8116007786480804e+04  3.8098677305289923e+04  3.8058913150340319e+04  3.7995365743660732e+04  3.7908594622912926e+04  3.7800999440977277e+04  3.7676611486031223e+04  3.7540772119664281e+04  3.7399732615773915e+04  3.7260213635842811e+04  3.7128961975642567e+04  3.7012337923498439e+04  3.6915959698326020e+04  3.6844423275299217e+04  5.2066203958190759e+04  5.1387004091253541e+04  5.0464660526660249e+04  4.9319009244402056e+04  4.7980112109241760e+04  4.6486625873666162e+04  4.4883528612815448e+04  4.3219442652622100e+04  4.1543836488768160e+04  3.9904387009252961e+04  3.8344738685067510e+04  3.6902818420875687e+04  3.5609770089887243e+04  3.4489480393279016e+04  3.3558594363739976e+04  3.2826875554661914e+04  3.2297756213642031e+04  3.1968942969805175e+04  3.1832985159616073e+04  3.1877764838018924e+04  3.2086918662525972e+04  3.2440242672465822e+04  3.2914154565690180e+04  3.3482290640128886e+04  3.4116295974016102e+04  3.4786830322140297e+04  3.5464765727179052e+04  3.6122504476451591e+04  3.6735307801495655e+04  3.7282504979440753e+04  3.7748453984793829e+04  3.8123148556316934e+04  3.8402407834126978e+04  3.8587635528016384e+04  3.8685186445111387e+04  3.8705420474413331e+04  3.8661551716762151e+04  3.8568410825233943e+04  3.8441232804028390e+04  3.8294564274676253e+04  3.8141358779900074e+04  3.7992301345400600e+04  3.7855378490040355e+04  3.7735689709051381e+04  3.7635481920361955e+04  3.7554378815612086e+04  3.7489771067175141e+04  3.7437329383105731e+04  3.7391599395725440e+04  3.7346634983564494e+04  3.7296625272586527e+04  3.7236471142057737e+04  3.7162270551744252e+04  3.7071679034319670e+04  3.6964122208628505e+04  3.6840850324697734e+04  3.6704839141491473e+04  3.6560555004770838e+04  3.6413613041809404e+04  3.6270364585186777e+04  3.6137452658550421e+04  3.6021372766499291e+04  3.5928071153783923e+04  3.5862605364370836e+04  3.5828883661718326e+04  5.3397284496615212e+04  5.2675162429486394e+04  5.1686412770077288e+04  5.0452841564778922e+04  4.9007594803516549e+04  4.7393310383592492e+04  4.5659546070382719e+04  4.3859759219023377e+04  4.2048163744823229e+04  4.0276787478480925e+04  3.8592999973212951e+04  3.7037689014381278e+04  3.5644153161056951e+04  3.4437670004719199e+04  3.3435615142060240e+04  3.2647957815800542e+04  3.2077949530397433e+04  3.1722847153239116e+04  3.1574561753962989e+04  3.1620185829322851e+04  3.1842411903527329e+04  3.2219904051623518e+04  3.2727712852048524e+04  3.3337829272248237e+04  3.4019953561813199e+04  3.4742515100422344e+04  3.5473926047418630e+04  3.6183996212696031e+04  3.6845390382623242e+04  3.7434982342705218e+04  3.7934958025230022e+04  3.8333544164156629e+04  3.8625283706805763e+04  3.8810836046627926e+04  3.8896338103344744e+04  3.8892411293067344e+04  3.8812932229129045e+04  3.8673698315551919e+04  3.8491114087907845e+04  3.8281004309813914e+04  3.8057631318264321e+04  3.7832962991615488e+04  3.7616208942844089e+04  3.7413619200350899e+04  3.7228522802307198e+04  3.7061572841434419e+04  3.6911158056897679e+04  3.6773937393964283e+04  3.6645451779773866e+04  3.6520766190366063e+04  3.6395095171907422e+04  3.6264367092424531e+04  3.6125687381593903e+04  3.5977669346023438e+04  3.5820612631522548e+04  3.5656523079327642e+04  3.5488982010281863e+04  3.5322886016112978e+04  3.5164088439796185e+04  3.5018979720997086e+04  3.4894045263267908e+04  3.4795436827274672e+04  3.4728587664330480e+04  3.4697893993644415e+04  3.4706477309610658e+04  5.4834064585180349e+04  5.4074940768059991e+04  5.3024508920252716e+04  5.1706462281382053e+04  5.0157024489162322e+04  4.8422880711211670e+04  4.6558295141194627e+04  4.4621729187948367e+04  4.2672331746301788e+04  4.0766669917059793e+04  3.8956006881598078e+04  3.7284327181213725e+04  3.5787181266254796e+04  3.4491296955696147e+04  3.3414808271433700e+04  3.2567896593684902e+04  3.1953629294164290e+04  3.1568811332780417e+04  3.1404723581742026e+04  3.1447692988727165e+04  3.1679509724833515e+04  3.2077763229305550e+04  3.2616203896908370e+04  3.3265245087208525e+04  3.3992700323761150e+04  3.4764806702628244e+04  3.5547525873793362e+04  3.6308050245223851e+04  3.7016387419461549e+04  3.7646861950459148e+04  3.8179367683018812e+04  3.8600227535889549e+04  3.8902565668960633e+04  3.9086159715442685e+04  3.9156806003078724e+04  3.9125286840162102e+04  3.9006067438320744e+04  3.8815866795823931e+04  3.8572242457004184e+04  3.8292307842253780e+04  3.7991669306778240e+04  3.7683635091690361e+04  3.7378715595782749e+04  3.7084407602243315e+04  3.6805235683940329e+04  3.6543011570612325e+04  3.6297265262567198e+04  3.6065798296353154e+04  3.5845308363041360e+04  3.5632034749165454e+04  3.5422375883032139e+04  3.5213434197591705e+04  3.5003450212291602e+04  3.4792097477024377e+04  3.4580622442790671e+04  3.4371827338732459e+04  3.4169908120686727e+04  3.3980171718048507e+04  3.3808665604516624e+04  3.3661757225930734e+04  3.3545700898727620e+04  3.3466226067771859e+04  3.3428174442513497e+04  3.3435205887578471e+04  3.3489585283170331e+04  5.6379549003063650e+04  5.5591035592138083e+04  5.4485384907704451e+04  5.3088025975922043e+04  5.1438184595906241e+04  4.9586595809190876e+04  4.7592304434401434e+04  4.5518907641718899e+04  4.3430659163069904e+04  4.1388851839110983e+04  3.9448825136802778e+04  3.7657822724151425e+04  3.6053778377604693e+04  3.4664966482350974e+04  3.3510342564672137e+04  3.2600336444897159e+04  3.1937850220702803e+04  3.1519248679926488e+04  3.1335196750180898e+04  3.1371280211500398e+04  3.1608425983538575e+04  3.2023203660664109e+04  3.2588131116021970e+04  3.3272118366557253e+04  3.4041164224629960e+04  3.4859373151061991e+04  3.5690293790359501e+04  3.6498508673919518e+04  3.7251341191390937e+04  3.7920504540100505e+04  3.8483506854622356e+04  3.8924649300629739e+04  3.9235504688187211e+04  3.9414832536882714e+04  3.9467959025188873e+04  3.9405713759026869e+04  3.9243059873162601e+04  3.8997574618826868e+04  3.8687934513766872e+04  3.8332536861896719e+04  3.7948355066173164e+04  3.7550086300219788e+04  3.7149613279568686e+04  3.6755771413388393e+04  3.6374390395635564e+04  3.6008565102103406e+04  3.5659102985543359e+04  3.5325092073156084e+04  3.5004533541993056e+04  3.4694984760407257e+04  3.4394162470298907e+04  3.4100461768895118e+04  3.3813355122286986e+04  3.3533646849760669e+04  3.3263571789349604e+04  3.3006740983973927e+04  3.2767950584188526e+04  3.2552881073777684e+04  3.2367721082593216e+04  3.2218752833212064e+04  3.2111934851496055e+04  3.2052512834897105e+04  3.2044682823942287e+04  3.2091323446276634e+04  3.2193807137670592e+04  5.8034436657888065e+04  5.7225854461269999e+04  5.6073241273279498e+04  5.4603535946483178e+04  5.2858813536309812e+04  5.0893788158511765e+04  4.8772296695735633e+04  4.6563157099249591e+04  4.4335870598708607e+04  4.2156635483682490e+04  4.0085062258752710e+04  3.8171843309275471e+04  3.6457464350587885e+04  3.4971884088705534e+04  3.3734982887450744e+04  3.2757510033478287e+04  3.2042247527658248e+04  3.1585148450185410e+04  3.1376283644389747e+04  3.1400522487625978e+04  3.1637963873635665e+04  3.2064207769705030e+04  3.2650605541562145e+04  3.3364642528792530e+04  3.4170587410058150e+04  3.5030493120650848e+04  3.5905562365022357e+04  3.6757810756604486e+04  3.7551888446761310e+04  3.8256871897845158e+04  3.8847821677909698e+04  3.9306923019226029e+04  3.9624078675122277e+04  3.9796897111819293e+04  3.9830098559160004e+04  3.9734432296022111e+04  3.9525249441979933e+04  3.9220900448961882e+04  3.8841125195311746e+04  3.8405580684802706e+04  3.7932614426019805e+04  3.7438348996715744e+04  3.6936102382272467e+04  3.6436134432905870e+04  3.5945684572349855e+04  3.5469249770747898e+04  3.5009043327541687e+04  3.4565572189665821e+04  3.4138271555350038e+04  3.3726139229381413e+04  3.3328318155307832e+04  3.2944583771361606e+04  3.2575703399613791e+04  3.2223647539079546e+04  3.1891646906021713e+04  3.1584103035945383e+04  3.1306372640366921e+04  3.1064455210094060e+04  3.0864618575603141e+04  3.0712998015173587e+04  3.0615201568090863e+04  3.0575948600793679e+04  3.0598761814111662e+04  3.0685726115696605e+04  3.0837322075569358e+04  5.9796282544529764e+04  5.8978616425652741e+04  5.7789095521952957e+04  5.6255864624715090e+04  5.4423611017472671e+04  5.2350874357084533e+04  5.0106221360805022e+04  4.7763717832246417e+04  4.5398217575191367e+04  4.3080988783332446e+04  4.0876113913445239e+04  3.8837947745463185e+04  3.7009733212356128e+04  3.5423294119749451e+04  3.4099582297350906e+04  3.3049775990530856e+04  3.2276612381381143e+04  3.1775681337086986e+04  3.1536491555917364e+04  3.1543222632126777e+04  3.1775177256225550e+04  3.2207031054230680e+04  3.2809032369626460e+04  3.3547323943507872e+04  3.4384540833517851e+04  3.5280787182726279e+04  3.6195017645490479e+04  3.7086761791507612e+04  3.7918049101112265e+04  3.8655335027633584e+04  3.9271207097803985e+04  3.9745668463087262e+04  4.0066850324769708e+04  4.0231082542755212e+04  4.0242337673281028e+04  4.0111141626432123e+04  3.9853101390814503e+04  3.9487229771851227e+04  3.9034248036253673e+04  3.8515024320485267e+04  3.7949266627042307e+04  3.7354543254437704e+04  3.6745658646377626e+04  3.6134374617577938e+04  3.5529438615032246e+04  3.4936862494409135e+04  3.4360385925355658e+04  3.3802055947397603e+04  3.3262856419556338e+04  3.2743326734339837e+04  3.2244117434611151e+04  3.1766440937878797e+04  3.1312388151422438e+04  3.0885095787087368e+04  3.0488763642718033e+04  3.0128534614659937e+04  2.9810261243513378e+04  2.9540189943416506e+04  2.9324597098993654e+04  2.9169410090760168e+04  2.9079841923121843e+04  2.9060061861568283e+04  2.9112917839982954e+04  2.9239720625423161e+04  2.9440095552442181e+04  6.1658597482806588e+04  6.0844377163218531e+04  5.9629746750290942e+04  5.8043675245712686e+04  5.6133136792521182e+04  5.3960252200033821e+04  5.1598170964006058e+04  4.9126162889470725e+04  4.6624488446559219e+04  4.4169622451568473e+04  4.1830315921539121e+04  3.9664816046672800e+04  3.7719360155704853e+04  3.6027859019959324e+04  3.4612526290484529e+04  3.3485119296034696e+04  3.2648438999479975e+04  3.2097784227213680e+04  3.1822147106130476e+04  3.1805049004564818e+04  3.2025027209590524e+04  3.2455874962756003e+04  3.3066799449367201e+04  3.3822686740377198e+04  3.4684647010603410e+04  3.5610960480555550e+04  3.6558463534931281e+04  3.7484320323355067e+04  3.8348036455580361e+04  3.9113506491760090e+04  3.9750859409967554e+04  4.0237881581825248e+04  4.0560851104353089e+04  4.0714698649133010e+04  4.0702501554438408e+04  4.0534402390058887e+04  4.0226106658950819e+04  3.9797148533357227e+04  3.9269117123489443e+04  3.8664013161881136e+04  3.8002865409203740e+04  3.7304687169682999e+04  3.6585804809480767e+04  3.5859548503129437e+04  3.5136264056362015e+04  3.4423584347432217e+04  3.3726888582122425e+04  3.3049875145749567e+04  3.2395177259818178e+04  3.1764958241569871e+04  3.1161433800848274e+04  3.0587281739884798e+04  3.0045913951747043e+04  2.9541600826195678e+04  2.9079452830624861e+04  2.8665276700715389e+04  2.8305333005474386e+04  2.8006026943804794e+04  2.7773564898462500e+04  2.7613606128955045e+04  2.7530933293438731e+04  2.7529158848987798e+04  2.7610478317374156e+04  2.7775477014339504e+04  2.8022994560065144e+04  6.3609934578468019e+04  6.2813027648130301e+04  6.1586699799683949e+04  5.9960289008680185e+04  5.7982641699960448e+04  5.5719118526312210e+04  5.3247209214640119e+04  5.0651258656682767e+04  4.8016920970957377e+04  4.5425970108186193e+04  4.2952002677247809e+04  4.0657391794938238e+04  3.8591628637631882e+04  3.6790967768035145e+04  3.5279115954905901e+04  3.4068600440555296e+04  3.3162430153988847e+04  3.2555712456894275e+04  3.2236986603656838e+04  3.2189156878297064e+04  3.2390029259788964e+04  3.2812556885685444e+04  3.3424968839951012e+04  3.4190986274307303e+04  3.5070316733296379e+04  3.6019564401780270e+04  3.6993609870432127e+04  3.7947413278241162e+04  3.8838098872280403e+04  3.9627106785182659e+04  4.0282164218749349e+04  4.0778839882242959e+04  4.1101499178024773e+04  4.1243561212270855e+04  4.1207054811212416e+04  4.1001560960067698e+04  4.0642698259674849e+04  4.0150346950403466e+04  3.9546813655208396e+04  3.8855117383101380e+04  3.8097535886536498e+04  3.7294500234060302e+04  3.6463873813951664e+04  3.5620606979058168e+04  3.4776724223634810e+04  3.3941578366087393e+04  3.3122294842259362e+04  3.2324326934716224e+04  3.1552047363754376e+04  3.0809311209355037e+04  3.0099938115338184e+04  2.9428076947528560e+04  2.8798432394404183e+04  2.8216349131440853e+04  2.7687763676226536e+04  2.7219045506112816e+04  2.6816756271407485e+04  2.6487358514273717e+04  2.6236903501935154e+04  2.6070722687643087e+04  2.5993140545724196e+04  2.6007219855448726e+04  2.6114545424204356e+04  2.6315049623938183e+04  2.6606883067090410e+04  6.5633028787213043e+04  6.4868334221164652e+04  6.3645116584397183e+04  6.1992563322266826e+04  5.9960892705147933e+04  5.7618263994650559e+04  5.5046159972354006e+04  5.2333772281657104e+04  4.9572050479277998e+04  4.6848096008881228e+04  4.4240488669321785e+04  4.1815946519831559e+04  3.9627481513020757e+04  3.7713972993597541e+04  3.6100886523351219e+04  3.4801748207630393e+04  3.3819955497534502e+04  3.3150554625392979e+04  3.2781718857269698e+04  3.2695792046568004e+04  3.2869892303847751e+04  3.3276180824700205e+04  3.3881977465669537e+04  3.4649939478120978e+04  3.5538509774756829e+04  3.6502788589327480e+04  3.7495896333847413e+04  3.8470791433790357e+04  3.9382405127918559e+04  4.0189876390702026e+04  4.0858630579096091e+04  4.1362052895128036e+04  4.1682559720384168e+04  4.1811955426714187e+04  4.1751061571102022e+04  4.1508700243393039e+04  4.1100187559055041e+04  4.0545536753460408e+04  3.9867580180578334e+04  3.9090199491257095e+04  3.8236811701084509e+04  3.7329206077052499e+04  3.6386772628967439e+04  3.5426115120384267e+04  3.4461004531352235e+04  3.3502604499210902e+04  3.2559887890656726e+04  3.1640161479554637e+04  3.0749621429034876e+04  2.9893873703446407e+04  2.9078368756040629e+04  2.8308717171301287e+04  2.7590870774719911e+04  2.6931170414096152e+04  2.6336275548184381e+04  2.5813000580237003e+04  2.5368087720089647e+04  2.5007946015270863e+04  2.4738381895774110e+04  2.4564339688714343e+04  2.4489663017873445e+04  2.4516881683921692e+04  2.4647024912952234e+04  2.4879461377037736e+04  2.5211768867437702e+04  6.7704073186108377e+04  6.6987107488043010e+04  6.5782883985366861e+04  6.4119870396830949e+04  6.2049078884283495e+04  5.9640927276507115e+04  5.6980433257312412e+04  5.4161294233811546e+04  5.1279553034772514e+04  4.8427580458042350e+04  4.5689013998344926e+04  4.3135098446885604e+04  4.0822621062192375e+04  3.8793375458572351e+04  3.7074875278397703e+04  3.5681906747381123e+04  3.4618471445335083e+04  3.3879717928232953e+04  3.3453568583602639e+04  3.3321885676639286e+04  3.3461159547939227e+04  3.3842820563829257e+04  3.4433360155776740e+04  3.5194486622341108e+04  3.6083534963429309e+04  3.7054299068575150e+04  3.8058367884930012e+04  3.9046940368006181e+04  3.9972987655372795e+04  4.0793546502399353e+04  4.1471882906948362e+04  4.1979267833957187e+04  4.2296156253023364e+04  4.2412644802796982e+04  4.2328184362368127e+04  4.2050621930571440e+04  4.1594724526987309e+04  4.0980385376091057e+04  4.0230725830018921e+04  3.9370288571339828e+04  3.8423476747590015e+04  3.7413340235427735e+04  3.6360754397057033e+04  3.5283986592851281e+04  3.4198606502743358e+04  3.3117670158973357e+04  3.2052094316060658e+04  3.1011135708296155e+04  3.0002896530541064e+04  2.9034790669226855e+04  2.8113922479989771e+04  2.7247349076017235e+04  2.6442216067220208e+04  2.5705773485260892e+04  2.5045291500864954e+04  2.4467903253700890e+04  2.3980404220923851e+04  2.3589034542517147e+04  2.3299263991026062e+04  2.3115590833067436e+04  2.3041357877814691e+04  2.3078583447742625e+04  2.3227803055289249e+04  2.3487919528102750e+04  2.3856064556471010e+04  6.9792230047483565e+04  6.9138604818455555e+04  6.7969907954305367e+04  6.6313288529254889e+04  6.4219910987209878e+04  6.1761819105604147e+04  5.9026994157842310e+04  5.6113175195720643e+04  5.3121174478376211e+04  5.0148464424474514e+04  4.7283725576925390e+04  4.4602847605123061e+04  4.2166610855829407e+04  4.0020000836074738e+04  3.8192877005918752e+04  3.6701569765562963e+04  3.5550931396145563e+04  3.4736409951934111e+04  3.4245824511864274e+04  3.4060663443884798e+04  3.4156873942882892e+04  3.4505237552016486e+04  3.5071517061234081e+04  3.5816606126315310e+04  3.6696910657697859e+04  3.7665142569020172e+04  3.8671620489705674e+04  3.9666064047129701e+04  4.0599759002643274e+04  4.1427881811878993e+04  4.2111722132719209e+04  4.2620540119739322e+04  4.2932841075008088e+04  4.3036932230008228e+04  4.2930727385880047e+04  4.2620864947570051e+04  4.2121286097755117e+04  4.1451470841710208e+04  4.0634546132538177e+04  3.9695464924848508e+04  3.8659415574507882e+04  3.7550567815639261e+04  3.6391204945300306e+04  3.5201240309235909e+04  3.3998075331871005e+04  3.2796728822968857e+04  3.1610153316603548e+04  3.0449652287923840e+04  2.9325319889912356e+04  2.824643965540362