<?xml version="1.0"?>
<VTKFile type="UnstructuredGrid"  version="0.1"  >
<UnstructuredGrid>
<Piece  NumberOfPoints="484" NumberOfCells="882">
<Points>
<DataArray  type="Float64"  NumberOfComponents="3"  format="ascii">0 0 0  0.04761904761904762 0 0  0.09523809523809523 0 0  0.1428571428571428 0 0  0.1904761904761905 0 0  0.2380952380952381 0 0  0.2857142857142857 0 0  0.3333333333333333 0 0  0.3809523809523809 0 0  0.4285714285714285 0 0  0.4761904761904762 0 0  0.5238095238095238 0 0  0.5714285714285714 0 0  0.6190476190476191 0 0  0.6666666666666666 0 0  0.7142857142857143 0 0  0.7619047619047619 0 0  0.8095238095238095 0 0  0.8571428571428571 0 0  0.9047619047619048 0 0  0.9523809523809523 0 0  1 0 0  0 0.04761904761904762 0  0.04761904761904762 0.04761904761904762 0  0.09523809523809523 0.04761904761904762 0  0.1428571428571428 0.04761904761904762 0  0.1904761904761905 0.04761904761904762 0  0.2380952380952381 0.04761904761904762 0  0.2857142857142857 0.04761904761904762 0  0.3333333333333333 0.04761904761904762 0  0.3809523809523809 0.04761904761904762 0  0.4285714285714285 0.04761904761904762 0  0.4761904761904762 0.04761904761904762 0  0.5238095238095238 0.04761904761904762 0  0.5714285714285714 0.04761904761904762 0  0.6190476190476191 0.04761904761904762 0  0.6666666666666666 0.04761904761904762 0  0.7142857142857143 0.04761904761904762 0  0.7619047619047619 0.04761904761904762 0  0.8095238095238095 0.04761904761904762 0  0.8571428571428571 0.04761904761904762 0  0.9047619047619048 0.04761904761904762 0  0.9523809523809523 0.04761904761904762 0  1 0.04761904761904762 0  0 0.09523809523809523 0  0.04761904761904762 0.09523809523809523 0  0.09523809523809523 0.09523809523809523 0  0.1428571428571428 0.09523809523809523 0  0.1904761904761905 0.09523809523809523 0  0.2380952380952381 0.09523809523809523 0  0.2857142857142857 0.09523809523809523 0  0.3333333333333333 0.09523809523809523 0  0.3809523809523809 0.09523809523809523 0  0.4285714285714285 0.09523809523809523 0  0.4761904761904762 0.09523809523809523 0  0.5238095238095238 0.09523809523809523 0  0.5714285714285714 0.09523809523809523 0  0.6190476190476191 0.09523809523809523 0  0.6666666666666666 0.09523809523809523 0  0.7142857142857143 0.09523809523809523 0  0.7619047619047619 0.09523809523809523 0  0.8095238095238095 0.09523809523809523 0  0.8571428571428571 0.09523809523809523 0  0.9047619047619048 0.09523809523809523 0  0.9523809523809523 0.09523809523809523 0  1 0.09523809523809523 0  0 0.1428571428571428 0  0.04761904761904762 0.1428571428571428 0  0.09523809523809523 0.1428571428571428 0  0.1428571428571428 0.1428571428571428 0  0.1904761904761905 0.1428571428571428 0  0.2380952380952381 0.1428571428571428 0  0.2857142857142857 0.1428571428571428 0  0.3333333333333333 0.1428571428571428 0  0.3809523809523809 0.1428571428571428 0  0.4285714285714285 0.1428571428571428 0  0.4761904761904762 0.1428571428571428 0  0.5238095238095238 0.1428571428571428 0  0.5714285714285714 0.1428571428571428 0  0.6190476190476191 0.1428571428571428 0  0.6666666666666666 0.1428571428571428 0  0.7142857142857143 0.1428571428571428 0  0.7619047619047619 0.1428571428571428 0  0.8095238095238095 0.1428571428571428 0  0.8571428571428571 0.1428571428571428 0  0.9047619047619048 0.1428571428571428 0  0.9523809523809523 0.1428571428571428 0  1 0.1428571428571428 0  0 0.1904761904761905 0  0.04761904761904762 0.1904761904761905 0  0.09523809523809523 0.1904761904761905 0  0.1428571428571428 0.1904761904761905 0  0.1904761904761905 0.1904761904761905 0  0.2380952380952381 0.1904761904761905 0  0.2857142857142857 0.1904761904761905 0  0.3333333333333333 0.1904761904761905 0  0.3809523809523809 0.1904761904761905 0  0.4285714285714285 0.1904761904761905 0  0.4761904761904762 0.1904761904761905 0  0.5238095238095238 0.1904761904761905 0  0.5714285714285714 0.1904761904761905 0  0.6190476190476191 0.1904761904761905 0  0.6666666666666666 0.1904761904761905 0  0.7142857142857143 0.1904761904761905 0  0.7619047619047619 0.1904761904761905 0  0.8095238095238095 0.1904761904761905 0  0.8571428571428571 0.1904761904761905 0  0.9047619047619048 0.1904761904761905 0  0.9523809523809523 0.1904761904761905 0  1 0.1904761904761905 0  0 0.2380952380952381 0  0.04761904761904762 0.2380952380952381 0  0.09523809523809523 0.2380952380952381 0  0.1428571428571428 0.2380952380952381 0  0.1904761904761905 0.2380952380952381 0  0.2380952380952381 0.2380952380952381 0  0.2857142857142857 0.2380952380952381 0  0.3333333333333333 0.2380952380952381 0  0.3809523809523809 0.2380952380952381 0  0.4285714285714285 0.2380952380952381 0  0.4761904761904762 0.2380952380952381 0  0.5238095238095238 0.2380952380952381 0  0.5714285714285714 0.2380952380952381 0  0.6190476190476191 0.2380952380952381 0  0.6666666666666666 0.2380952380952381 0  0.7142857142857143 0.2380952380952381 0  0.7619047619047619 0.2380952380952381 0  0.8095238095238095 0.2380952380952381 0  0.8571428571428571 0.2380952380952381 0  0.9047619047619048 0.2380952380952381 0  0.9523809523809523 0.2380952380952381 0  1 0.2380952380952381 0  0 0.2857142857142857 0  0.04761904761904762 0.2857142857142857 0  0.09523809523809523 0.2857142857142857 0  0.1428571428571428 0.2857142857142857 0  0.1904761904761905 0.2857142857142857 0  0.2380952380952381 0.2857142857142857 0  0.2857142857142857 0.2857142857142857 0  0.3333333333333333 0.2857142857142857 0  0.3809523809523809 0.2857142857142857 0  0.4285714285714285 0.2857142857142857 0  0.4761904761904762 0.2857142857142857 0  0.5238095238095238 0.2857142857142857 0  0.5714285714285714 0.2857142857142857 0  0.6190476190476191 0.2857142857142857 0  0.6666666666666666 0.2857142857142857 0  0.7142857142857143 0.2857142857142857 0  0.7619047619047619 0.2857142857142857 0  0.8095238095238095 0.2857142857142857 0  0.8571428571428571 0.2857142857142857 0  0.9047619047619048 0.2857142857142857 0  0.9523809523809523 0.2857142857142857 0  1 0.2857142857142857 0  0 0.3333333333333333 0  0.04761904761904762 0.3333333333333333 0  0.09523809523809523 0.3333333333333333 0  0.1428571428571428 0.3333333333333333 0  0.1904761904761905 0.3333333333333333 0  0.2380952380952381 0.3333333333333333 0  0.2857142857142857 0.3333333333333333 0  0.3333333333333333 0.3333333333333333 0  0.3809523809523809 0.3333333333333333 0  0.4285714285714285 0.3333333333333333 0  0.4761904761904762 0.3333333333333333 0  0.5238095238095238 0.3333333333333333 0  0.5714285714285714 0.3333333333333333 0  0.6190476190476191 0.3333333333333333 0  0.6666666666666666 0.3333333333333333 0  0.7142857142857143 0.3333333333333333 0  0.7619047619047619 0.3333333333333333 0  0.8095238095238095 0.3333333333333333 0  0.8571428571428571 0.3333333333333333 0  0.9047619047619048 0.3333333333333333 0  0.9523809523809523 0.3333333333333333 0  1 0.3333333333333333 0  0 0.3809523809523809 0  0.04761904761904762 0.3809523809523809 0  0.09523809523809523 0.3809523809523809 0  0.1428571428571428 0.3809523809523809 0  0.1904761904761905 0.3809523809523809 0  0.2380952380952381 0.3809523809523809 0  0.2857142857142857 0.3809523809523809 0  0.3333333333333333 0.3809523809523809 0  0.3809523809523809 0.3809523809523809 0  0.4285714285714285 0.3809523809523809 0  0.4761904761904762 0.3809523809523809 0  0.5238095238095238 0.3809523809523809 0  0.5714285714285714 0.3809523809523809 0  0.6190476190476191 0.3809523809523809 0  0.6666666666666666 0.3809523809523809 0  0.7142857142857143 0.3809523809523809 0  0.7619047619047619 0.3809523809523809 0  0.8095238095238095 0.3809523809523809 0  0.8571428571428571 0.3809523809523809 0  0.9047619047619048 0.3809523809523809 0  0.9523809523809523 0.3809523809523809 0  1 0.3809523809523809 0  0 0.4285714285714285 0  0.04761904761904762 0.4285714285714285 0  0.09523809523809523 0.4285714285714285 0  0.1428571428571428 0.4285714285714285 0  0.1904761904761905 0.4285714285714285 0  0.2380952380952381 0.4285714285714285 0  0.2857142857142857 0.4285714285714285 0  0.3333333333333333 0.4285714285714285 0  0.3809523809523809 0.4285714285714285 0  0.4285714285714285 0.4285714285714285 0  0.4761904761904762 0.4285714285714285 0  0.5238095238095238 0.4285714285714285 0  0.5714285714285714 0.4285714285714285 0  0.6190476190476191 0.4285714285714285 0  0.6666666666666666 0.4285714285714285 0  0.7142857142857143 0.4285714285714285 0  0.7619047619047619 0.4285714285714285 0  0.8095238095238095 0.4285714285714285 0  0.8571428571428571 0.4285714285714285 0  0.9047619047619048 0.4285714285714285 0  0.9523809523809523 0.4285714285714285 0  1 0.4285714285714285 0  0 0.4761904761904762 0  0.04761904761904762 0.4761904761904762 0  0.09523809523809523 0.4761904761904762 0  0.1428571428571428 0.4761904761904762 0  0.1904761904761905 0.4761904761904762 0  0.2380952380952381 0.4761904761904762 0  0.2857142857142857 0.4761904761904762 0  0.3333333333333333 0.4761904761904762 0  0.3809523809523809 0.4761904761904762 0  0.4285714285714285 0.4761904761904762 0  0.4761904761904762 0.4761904761904762 0  0.5238095238095238 0.4761904761904762 0  0.5714285714285714 0.4761904761904762 0  0.6190476190476191 0.4761904761904762 0  0.6666666666666666 0.4761904761904762 0  0.7142857142857143 0.4761904761904762 0  0.7619047619047619 0.4761904761904762 0  0.8095238095238095 0.4761904761904762 0  0.8571428571428571 0.4761904761904762 0  0.9047619047619048 0.4761904761904762 0  0.9523809523809523 0.4761904761904762 0  1 0.4761904761904762 0  0 0.5238095238095238 0  0.04761904761904762 0.5238095238095238 0  0.09523809523809523 0.5238095238095238 0  0.1428571428571428 0.5238095238095238 0  0.1904761904761905 0.5238095238095238 0  0.2380952380952381 0.5238095238095238 0  0.2857142857142857 0.5238095238095238 0  0.3333333333333333 0.5238095238095238 0  0.3809523809523809 0.5238095238095238 0  0.4285714285714285 0.5238095238095238 0  0.4761904761904762 0.5238095238095238 0  0.5238095238095238 0.5238095238095238 0  0.5714285714285714 0.5238095238095238 0  0.6190476190476191 0.523
[...]
<PointData  Scalars="gamma"> 
<DataArray  type="Float64"  Name="gamma"  format="ascii">7.3493881706322597e+00  8.8526688181874285e+00  5.9366491151838190e+00  4.3918120456694050e+00  3.9564671290080655e+00  3.9274266301806171e+00  1.5894160415274918e+00  1.3127873917181117e+00  5.4179075023203627e+00  1.1295470485681788e+01  1.2137828164330481e+01  6.4214046804334792e+00  2.0621276624925726e+00  2.7624938045720437e+00  2.4991341768634854e+00  1.9735949756564333e+00  4.2063174744608629e+00  5.0808616230404926e+00  3.2711049117628654e+00  8.2424949246657864e-01  8.4177901668923494e-01  2.7648586379247582e+00  6.9363384632075258e+00  1.0431467337926083e+01  7.8015107180315351e+00  3.9909139208321851e+00  3.4419258554688099e+00  4.4302396063330516e+00  2.0432116547010475e+00  6.7235858090313427e-01  1.3489725449166041e+00  4.5738544624248094e+00  6.4962010095830856e+00  4.8209803830876421e+00  2.3075562795305071e+00  2.0671314958578488e+00  2.0872160884552704e+00  2.0754127968736671e+00  6.9382524317638525e+00  1.0829696532066469e+01  5.2663506039395749e+00  1.2688888063366122e+00  4.0069811923760656e-01  8.8652193865482665e-01  7.3243377843654827e+00  1.0616916642027135e+01  6.8776334929579237e+00  2.6438098203105715e+00  1.8517367332726979e+00  3.2220569482078991e+00  3.8544597685372599e+00  1.8378500827517428e+00  7.7718607199318179e-01  1.1071750133857197e+00  1.6436018479345207e+00  2.3486728098650231e+00  1.7711196716632500e+00  1.0632338536802970e+00  1.6799564029997762e+00  1.9153435262557206e+00  5.5315080752626518e+00  1.0362846715067407e+01  5.5084188179935056e+00  2.6105993913669838e+00  9.9884287045382858e-01  1.4600312890859994e+00  2.8057130144069706e+00  3.9029934100766175e+00  3.7793750799445132e+00  2.2785512439033497e+00  1.0466111431316574e+00  1.3913057322712985e+00  3.2804642322527515e+00  2.2911052731259827e+00  8.2308817781939259e-01  6.6878051144244677e-01  6.3202331128277489e-01  1.1068073331964252e+00  1.2443736122880016e+00  8.9376007770301324e-01  1.6012201289655612e+00  1.4101025996443914e+00  3.5799939096892288e+00  7.6778078301736201e+00  5.1152946902896712e+00  3.8172675947602497e+00  4.1927389316697603e+00  5.1839068308592617e+00  1.3863712384179789e+00  2.3597378008271646e+00  2.9076554676302728e+00  1.7900003529892343e+00  1.4988118504188814e+00  1.8880747737630519e+00  1.5732581795735734e+00  1.4324958508947379e+00  1.1480455110187440e+00  1.2795280256641082e+00  1.4776808073628560e+00  2.3408637008643596e+00  2.6279762288324333e+00  1.5985063246258959e+00  1.2838273644967386e+00  1.4154560218958687e+00  4.6365949640169895e+00  8.6268856091790038e+00  5.9336844250192575e+00  4.7470140815021091e+00  7.6044891022705263e+00  6.9120055362302724e+00  4.5598844210870872e+00  7.2660377675840859e+00  5.1846864743612988e+00  1.9030682027538131e+00  2.3641052732934225e+00  3.0018368250399483e+00  1.5316156733313653e+00  2.0582459509299493e+00  1.9500574158562416e+00  1.5869186872850150e+00  1.5007604603583278e+00  3.3494857882269451e+00  3.1035530879560129e+00  1.0011068745488421e+00  6.2716005535965791e-01  1.2498196985160566e+00  6.3473564530164701e+00  9.8005358745506985e+00  5.2132928294353436e+00  4.0300275814692563e+00  4.6078443001865503e+00  3.8568521082112328e+00  4.7726126316712900e+00  5.7737712264193277e+00  5.2301036529350329e+00  4.7740083441798635e+00  5.9854802079749758e+00  4.0786476128744775e+00  1.5545806728465690e+00  1.7409668372524170e+00  1.8709584672892379e+00  1.3340327327722752e+00  9.5601021795036945e-01  2.7949660705980621e+00  2.0704958212214057e+00  1.8247668133159756e-01  1.6804153133203684e-01  1.2809501658550264e+00  8.8684802789554951e+00  1.4298417818957624e+01  8.9023848767443567e+00  4.1742196309700610e+00  1.5962099745835632e+00  1.2610459618368743e+00  2.4574279667833996e+00  1.6757163634827137e+00  3.0007631940408723e+00  5.9632771501551574e+00  6.4670749659256135e+00  3.0755731990742845e+00  1.9767516662199445e+00  2.6137735647008871e+00  2.8648541501432256e+00  3.6080118544498494e+00  2.9599093968907368e+00  2.9943013564274223e+00  1.8747873463182949e+00  4.7671040822765709e-01  4.0135831457738136e-01  2.0189635616852155e+00  7.4925164120076246e+00  9.5231452878728184e+00  7.7010130548799349e+00  2.8466048613286752e+00  7.3079408709584226e-01  4.4642041780449271e-01  2.7593244487350796e+00  1.3762592831582920e+00  1.9218445987012354e+00  2.7978195906974888e+00  2.6169205030107179e+00  1.9027577890371339e+00  3.7579180575312483e+00  4.2504553127339335e+00  3.2945106120872802e+00  4.2662554569835756e+00  3.7810955979475391e+00  2.4184719322401520e+00  1.8777397043754940e+00  2.6032127771075295e+00  2.7347377655592826e+00  3.9246618059976286e+00  6.5728598665522053e+00  6.1598224513855637e+00  4.7779343435480142e+00  2.2628368653738096e+00  1.0431289331262388e+00  8.4040008227401330e-01  3.6753695356985294e+00  3.2195761315435254e+00  2.0107029292863552e+00  1.4991805583079620e+00  1.7281578984273107e+00  2.0760508956549746e+00  4.2142743055785257e+00  4.1314296532749726e+00  3.9418508927407556e+00  3.2135236632463435e+00  2.2611095634916145e+00  2.0635092511001245e+00  2.0194459435852949e+00  3.3788370882481908e+00  4.5360785840582505e+00  3.7941900977419030e+00  6.0208798914348804e+00  6.4758669908292834e+00  4.4363735802087216e+00  3.6983928514786024e+00  2.3710659986993519e+00  2.1067871111433121e+00  8.5272843423988109e-01  1.5206652944252639e+00  1.4473828427549376e+00  1.3803733216137548e+00  1.6235875177173549e+00  1.7938626126860608e+00  3.3273537559137445e+00  5.4463120616926721e+00  8.5196935923195269e+00  4.5013876610205692e+00  1.4474186241335971e+00  1.4478941149258306e+00  1.6583205912596852e+00  2.1728457806660133e+00  3.3860238602707686e+00  1.7370013604920631e+00  1.5455929152639851e+00  2.7382074427306167e+00  2.2487050536688198e+00  2.1841273447830543e+00  1.6448495546244306e+00  2.0996112441913533e+00  3.2093859696214777e-01  1.6739428203169147e+00  2.0480047434018611e+00  2.3758680880203258e+00  2.1583601108589967e+00  2.1966315180413520e+00  3.9670776362037943e+00  5.4415133919603527e+00  7.1150075628250651e+00  3.7730027328619311e+00  8.8866299433337603e-01  7.7025576807190488e-01  1.3840207668861184e+00  1.7420870793309637e+00  2.6066333549341314e+00  1.8852791367078656e+00  5.5534037196181685e-01  8.8011865529533728e-01  1.0491849829505040e+00  4.3554883302805880e-01  2.8994362616397479e-01  1.1141573412521402e+00  1.7859477654959086e+00  7.0004942616024080e+00  4.1791493912885764e+00  4.2308692706495545e+00  4.2457185930954253e+00  2.7214682522060798e+00  3.3994879091002055e+00  3.1813660076942316e+00  2.8517013480789846e+00  2.4892220944505539e+00  9.9089165359916409e-01  6.4683351870627714e-01  1.8006897795193224e+00  2.8580658655837801e+00  3.2319053224824330e+00  2.8369161732119390e+00  1.0139309343399319e+00  1.3708254152720982e+00  1.8442861386190899e+00  4.4209959214430039e-01  1.4668885327918765e-01  5.0237811545508682e-01  5.2308304982316347e+00  9.0325711582352248e+00  5.0766455434446200e+00  5.0906371180282424e+00  5.2420812819929843e+00  2.6550671472538081e+00  1.7615752411065770e+00  7.0117883562649375e-01  7.5902288715305544e-01  2.7738592249708742e+00  1.3174968677418226e+00  2.7287478583383384e-01  1.4295614775296719e+00  5.1329042319205405e+00  4.3388109290664119e+00  1.7567580116019790e+00  1.1739890095255139e+00  1.6523415027848387e+00  1.6302266733605988e+00  1.3168118691498025e+00  8.1656799310311046e-01  5.7345194661120169e-01  3.7099137129618489e+00  5.4792748728378182e+00  3.9231323121388959e+00  2.5654611157583482e+00  2.8269082123780769e+00  3.7365627853980836e+00  2.7096227185282404e+00  8.8154993873829479e-01  1.2118981853405635e+00  6.5560403085605881e+00  3.9648760249768715e+00  7.0044096844567860e-01  7.8080434756578554e-01  2.3626761122988253e+00  4.6427803561317260e+00  4.1293044247794173e+00  3.3475057476665615e+00  2.0088978823435584e+00  1.3608252957851878e+00  2.7293120784886460e+00  3.0141195212805449e+00  1.7398507113140664e+00  2.1777637072084755e+00  3.4971423052899011e+00  1.8091153791242318e+00  9.9437209429374218e-01  2.2839655638792875e+00  5.8373070289877456e+00  4.2704142068497664e+00  1.2684125864855442e+00  1.7376066468963134e+00  5.5600780821552558e+00  3.5591461491578795e+00  1.7727948329011471e+00  1.7514281124428899e+00  1.8834038280017085e+00  4.1433796270697538e+00  7.2405669361800946e+00  6.1396165170187018e+00  4.1434359024303937e+00  3.4455358705274080e+00  4.8567698650305733e+00  4.3135909081991741e+00  2.2646020493047381e+00  9.7781171053191840e-01  2.2986566887463180e+00  2.0809830433170466e+00  3.0680343256256957e+00  5.6381207393116917e+00  5.6486025818326215e+00  2.8361588805988598e+00  2.0280894875462483e+00  2.7656086213604016e+00  2.4384180287700210e+00  1.2122090956464528e+00  2.7859778553206032e+00  6.3585081747710142e+00  3.0326984223511966e+00  1.9462250795596678e+00  4.2345761762380887e+00  5.0352085740887951e+00  6.0136798489723313e+00  5.9324097864651497e+00  5.1593180206749887e+00  2.8579083262663372e+00  9.9473388037356469e-01  1.5665282592049488e+00  1.9993818729668615e+00  1.6860712374013622e+00  4.5957985474556011e+00  6.8468935081648823e+00  2.3425200107512527e+00  1.1327209926237272e+00  5.6724894229096892e+00  1.0330368127464734e+01  5.4818848380951355e+00  2.7062059771636160e+00  4.4188462656277157e+00  7.1792949921155547e+00  3.2169646606074211e+00  1.4251328649163699e+00  2.1385040672442170e+00  2.2871967441071943e+00  3.5400277732598715e+00  4.8962151121540813e+00  5.1927228822062190e+00  2.7236845052048051e+00  6.8310821089849250e-01  2.7895291082069531e+00  1.6328228513569272e+00  9.5018633215774362e-01  3.0828378827747782e+00  3.7755873674917719e+00  1.6940868941051708e+00  1.2733242735238783e+00  6.3215906749760169e+00  1.3260543242219669e+01  8.5825155590433049e+00  4.2141772591157407e+00  3.4399578730489426e+00  2.6900561258705333e+00  1.7927193195139191e+00  1.7751695278976234e+00  1.7554366633223499e+00  8.5977862935736238e-01  1.3775208442940086e+00  5.6287560514416572e+00  8.3237757448025711e+00  3.6933833051061695e+00  9.7792910996466798e-01  3.9638326800054395e+00  2.9640599180143745e+00  1.3258338912524055e+00  1.4088388608927160e+00  2.0781694287699306e+00  3.5751399258155376e+00  3.5599058481319954e+00  4.3564281309065898e+00  5.2194357857392175e+00  3.7272091716289770e+00  2.6003225164458175e+00  2.6596843082583588e+00  1.9352877594332991e+00  1.7661937006053474e+00  1.9633593863650201e+00  1.7851738487897482e+00  9.6523727670080373e-01  1.3207334166095979e+00  3.6511923143611407e+00  6.0161054886958727e+00  5.4604664402349643e+00  3.4654218274355166e+00  4.4171056034578413e+00  4.8773758918369463e+00  1.9886711951031679e+00  4.8899019956816225e-01  1.1289876017901903e+00  4.7042922175705444e+00  5.2795299012026025e+00  1.9315245060289894e+00  1.4618291166653334e+00  2.9177613540750231e+00  2.3025621444033986e+00  1.6679079266013819e+00  1.6364920266036391e+00  1.8366245587957342e+00  2.1256307328587445e+00  2.0102513523087655e+00  1.6404984061915071e+00  1.8855675856718159e+00  2.2272067434066214e+00  2.9278017992433201e+00  5.4044320385001772e+00  6.0412814785636932e+00  3.7054726281796087e+00  4.0400779019249198e+00  2.7517667745944721e+00  7.5448677758227145e-01  8.2089272541382696e-01  2.4361573788295789e+00  4.0481654440944563e+00  1.8554425655922118e+00  8.9103686837864182e-01  2.0663954730545671e+00  1.5083396350332525e+00  1.3540793419177193e+00  2.3281412992115564e+00  2.5105176319840941e+00  1.9871671744903048e+00  1.0235964343533070e+00  1.4503695576306506e+00  1.8449853175328286e+00  1.6215867659757612e+00  1.5517313423002288e+00  2.4169229956263756e+00  4.3393224155652605e+00  </DataArray> 
</PointData> 
</Piece>
</UnstructuredGrid>
</VTKFile>