<?xml version="1.0"?>
<VTKFile type="UnstructuredGrid"  version="0.1"  >
<UnstructuredGrid>
<Piece  NumberOfPoints="4225" NumberOfCells="8192">
<Points>
<DataArray  type="Float64"  NumberOfComponents="3"  format="ascii">0 0 0  0.015625 0 0  0.03125 0 0  0.046875 0 0  0.0625 0 0  0.078125 0 0  0.09375 0 0  0.109375 0 0  0.125 0 0  0.140625 0 0  0.15625 0 0  0.171875 0 0  0.1875 0 0  0.203125 0 0  0.21875 0 0  0.234375 0 0  0.25 0 0  0.265625 0 0  0.28125 0 0  0.296875 0 0  0.3125 0 0  0.328125 0 0  0.34375 0 0  0.359375 0 0  0.375 0 0  0.390625 0 0  0.40625 0 0  0.421875 0 0  0.4375 0 0  0.453125 0 0  0.46875 0 0  0.484375 0 0  0.5 0 0  0.515625 0 0  0.53125 0 0  0.546875 0 0  0.5625 0 0  0.578125 0 0  0.59375 0 0  0.609375 0 0  0.625 0 0  0.640625 0 0  0.65625 0 0  0.671875 0 0  0.6875 0 0  0.703125 0 0  0.71875 0 0  0.734375 0 0  0.75 0 0  0.765625 0 0  0.78125 0 0  0.796875 0 0  0.8125 0 0  0.828125 0 0  0.84375 0 0  0.859375 0 0  0.875 0 0  0.890625 0 0  0.90625 0 0  0.921875 0 0  0.9375 0 0  0.953125 0 0  0.96875 0 0  0.984375 0 0  1 0 0  0 0.015625 0  0.015625 0.015625 0  0.03125 0.015625 0  0.046875 0.015625 0  0.0625 0.015625 0  0.078125 0.015625 0  0.09375 0.015625 0  0.109375 0.015625 0  0.125 0.015625 0  0.140625 0.015625 0  0.15625 0.015625 0  0.171875 0.015625 0  0.1875 0.015625 0  0.203125 0.015625 0  0.21875 0.015625 0  0.234375 0.015625 0  0.25 0.015625 0  0.265625 0.015625 0  0.28125 0.015625 0  0.296875 0.015625 0  0.3125 0.015625 0  0.328125 0.015625 0  0.34375 0.015625 0  0.359375 0.015625 0  0.375 0.015625 0  0.390625 0.015625 0  0.40625 0.015625 0  0.421875 0.015625 0  0.4375 0.015625 0  0.453125 0.015625 0  0.46875 0.015625 0  0.484375 0.015625 0  0.5 0.015625 0  0.515625 0.015625 0  0.53125 0.015625 0  0.546875 0.015625 0  0.5625 0.015625 0  0.578125 0.015625 0  0.59375 0.015625 0  0.609375 0.015625 0  0.625 0.015625 0  0.640625 0.015625 0  0.65625 0.015625 0  0.671875 0.015625 0  0.6875 0.015625 0  0.703125 0.015625 0  0.71875 0.015625 0  0.734375 0.015625 0  0.75 0.015625 0  0.765625 0.015625 0  0.78125 0.015625 0  0.796875 0.015625 0  0.8125 0.015625 0  0.828125 0.015625 0  0.84375 0.015625 0  0.859375 0.015625 0  0.875 0.015625 0  0.890625 0.015625 0  0.90625 0.015625 0  0.921875 0.015625 0  0.9375 0.015625 0  0.953125 0.015625 0  0.96875 0.015625 0  0.984375 0.015625 0  1 0.015625 0  0 0.03125 0  0.015625 0.03125 0  0.03125 0.03125 0  0.046875 0.03125 0  0.0625 0.03125 0  0.078125 0.03125 0  0.09375 0.03125 0  0.109375 0.03125 0  0.125 0.03125 0  0.140625 0.03125 0  0.15625 0.03125 0  0.171875 0.03125 0  0.1875 0.03125 0  0.203125 0.03125 0  0.21875 0.03125 0  0.234375 0.03125 0  0.25 0.03125 0  0.265625 0.03125 0  0.28125 0.03125 0  0.296875 0.03125 0  0.3125 0.03125 0  0.328125 0.03125 0  0.34375 0.03125 0  0.359375 0.03125 0  0.375 0.03125 0  0.390625 0.03125 0  0.40625 0.03125 0  0.421875 0.03125 0  0.4375 0.03125 0  0.453125 0.03125 0  0.46875 0.03125 0  0.484375 0.03125 0  0.5 0.03125 0  0.515625 0.03125 0  0.53125 0.03125 0  0.546875 0.03125 0  0.5625 0.03125 0  0.578125 0.03125 0  0.59375 0.03125 0  0.609375 0.03125 0  0.625 0.03125 0  0.640625 0.03125 0  0.65625 0.03125 0  0.671875 0.03125 0  0.6875 0.03125 0  0.703125 0.03125 0  0.71875 0.03125 0  0.734375 0.03125 0  0.75 0.03125 0  0.765625 0.03125 0  0.78125 0.03125 0  0.796875 0.03125 0  0.8125 0.03125 0  0.828125 0.03125 0  0.84375 0.03125 0  0.859375 0.03125 0  0.875 0.03125 0  0.890625 0.03125 0  0.90625 0.03125 0  0.921875 0.03125 0  0.9375 0.03125 0  0.953125 0.03125 0  0.96875 0.03125 0  0.984375 0.03125 0  1 0.03125 0  0 0.046875 0  0.015625 0.046875 0  0.03125 0.046875 0  0.046875 0.046875 0  0.0625 0.046875 0  0.078125 0.046875 0  0.09375 0.046875 0  0.109375 0.046875 0  0.125 0.046875 0  0.140625 0.046875 0  0.15625 0.046875 0  0.171875 0.046875 0  0.1875 0.046875 0  0.203125 0.046875 0  0.21875 0.046875 0  0.234375 0.046875 0  0.25 0.046875 0  0.265625 0.046875 0  0.28125 0.046875 0  0.296875 0.046875 0  0.3125 0.046875 0  0.328125 0.046875 0  0.34375 0.046875 0  0.359375 0.046875 0  0.375 0.046875 0  0.390625 0.046875 0  0.40625 0.046875 0  0.421875 0.046875 0  0.4375 0.046875 0  0.453125 0.046875 0  0.46875 0.046875 0  0.484375 0.046875 0  0.5 0.046875 0  0.515625 0.046875 0  0.53125 0.046875 0  0.546875 0.046875 0  0.5625 0.046875 0  0.578125 0.046875 0  0.59375 0.046875 0  0.609375 0.046875 0  0.625 0.046875 0  0.640625 0.046875 0  0.65625 0.046875 0  0.671875 0.046875 0  0.6875 0.046875 0  0.703125 0.046875 0  0.71875 0.046875 0  0.734375 0.046875 0  0.75 0.046875 0  0.765625 0.046875 0  0.78125 0.046875 0  0.796875 0.046875 0  0.8125 0.046875 0  0.828125 0.046875 0  0.84375 0.046875 0  0.859375 0.046875 0  0.875 0.046875 0  0.890625 0.046875 0  0.90625 0.046875 0  0.921875 0.046875 0  0.9375 0.046875 0  0.953125 0.046875 0  0.96875 0.046875 0  0.984375 0.046875 0  1 0.046875 0  0 0.0625 0  0.015625 0.0625 0  0.03125 0.0625 0  0.046875 0.0625 0  0.0625 0.0625 0  0.078125 0.0625 0  0.09375 0.0625 0  0.109375 0.0625 0  0.125 0.0625 0  0.140625 0.0625 0  0.15625 0.0625 0  0.171875 0.0625 0  0.1875 0.0625 0  0.203125 0.0625 0  0.21875 0.0625 0  0.234375 0.0625 0  0.25 0.0625 0  0.265625 0.0625 0  0.28125 0.0625 0  0.296875 0.0625 0  0.3125 0.0625 0  0.328125 0.0625 0  0.34375 0.0625 0  0.359375 0.0625 0  0.375 0.0625 0  0.390625 0.0625 0  0.40625 0.0625 0  0.421875 0.0625 0  0.4375 0.0625 0  0.453125 0.0625 0  0.46875 0.0625 0  0.484375 0.0625 0  0.5 0.0625 0  0.515625 0.0625 0  0.53125 0.0625 0  0.546875 0.0625 0  0.5625 0.0625 0  0.578125 0.0625 0  0.59375 0.0625 0  0.609375 0.0625 0  0.625 0.0625 0  0.640625 0.0625 0  0.65625 0.0625 0  0.671875 0.0625 0  0.6875 0.0625 0  0.703125 0.0625 0  0.71875 0.0625 0  0.734375 0.0625 0  0.75 0.0625 0  0.765625 0.0625 0  0.78125 0.0625 0  0.796875 0.0625 0  0.8125 0.0625 0  0.828125 0.0625 0  0.84375 0.0625 0  0.859375 0.0625 0  0.875 0.0625 0  0.890625 0.0625 0  0.90625 0.0625 0  0.921875 0.0625 0  0.9375 0.0625 0  0.953125 0.0625 0  0.96875 0.0625 0  0.984375 0.0625 0  1 0.0625 0  0 0.078125 0  0.015625 0.078125 0  0.03125 0.078125 0  0.046875 0.078125 0  0.0625 0.078125 0  0.078125 0.078125 0  0.09375 0.078125 0  0.109375 0.078125 0  0.125 0.078125 0  0.140625 0.078125 0  0.15625 0.078125 0  0.171875 0.078125 0  0.1875 0.078125 0  0.203125 0.078125 0  0.21875 0.078125 0  0.234375 0.078125 0  0.25 0.078125 0  0.265625 0.078125 0  0.28125 0.078125 0  0.296875 0.078125 0  0.3125 0.078125 0  0.328125 0.078125 0  0.34375 0.078125 0  0.359375 0.078125 0  0.375 0.078125 0  0.390625 0.078125 0  0.40625 0.078125 0  0.421875 0.078125 0  0.4375 0.078125 0  0.453125 0.078125 0  0.46875 0.078125 0  0.484375 0.078125 0  0.5 0.078125 0  0.515625 0.078125 0  0.53125 0.078125 0  0.546875 0.078125 0  0.5625 0.078125 0  0.578125 0.078125 0  0.59375 0.078125 0  0.609375 0.078125 0  0.625 0.078125 0  0.640625 0.078125 0  0.65625 0.078125 0  0.671875 0.078125 0  0.6875 0.078125 0  0.703125 0.078125 0  0.71875 0.078125 0  0.734375 0.078125 0  0.75 0.078125 0  0.765625 0.078125 0  0.78125 0.078125 0  0.796875 0.078125 0  0.8125 0.078125 0  0.828125 0.078125 0  0.84375 0.078125 0  0.859375 0.078125 0  0.875 0.078125 0  0.890625 0.078125 0  0.90625 0.078125 0  0.921875 0.078125 0  0.9375 0.078125 0  0.953125 0.078125 0  0.96875 0.078125 0  0.984375 0.078125 0  1 0.078125 0  0 0.09375 0  0.015625 0.09375 0  0.03125 0.09375 0  0.046875 0.09375 0  0.0625 0.09375 0  0.078125 0.09375 0  0.09375 0.09375 0  0.109375 0.09375 0  0.125 0.09375 0  0.140625 0.09375 0  0.15625 0.09375 0  0.171875 0.09375 0  0.1875 0.09375 0  0.203125 0.09375 0  0.21875 0.09375 0  0.234375 0.09375 0  0.25 0.09375 0  0.265625 0.09375 0  0.28125 0.09375 0  0.296875 0.09375 0  0.3125 0.09375 0  0.328125 0.09375 0  0.34375 0.09375 0  0.359375 0.09375 0  0.375 0.09375 0  0.390625 0.09375 0  0.40625 0.09375 0  0.421875 0.09375 0  0.4375 0.09375 0  0.453125 0.09375 0  0.46875 0.09375 0  0.484375 0.09375 0  0.5 0.09375 0  0.515625 0.09375 0  0.53125 0.09375 0  0.546875 0.09375 0  0.5625 0.09375 0  0.578125 0.09375 0  0.59375 0.09375 0  0.609375 0.09375 0  0.625 0.09375 0  0.640625 0.09375 0  0.65625 0.09375 0  0.671875 0.09375 0  0.6875 0.09375 0  0.703125 0.09375 0  0.71875 0.09375 0  0.734375 0.09375 0  0.75 0.09375 0  0.765625 0.09375 0  0.78125 0.09375 0  0.796875 0.09375 0  0.8125 0.09375 0  0.828125 0.09375 0  0.84375 0.09375 0  0.859375 0.09375 0  0.875 0.09375 0  0.890625 0.09375 0  0.90625 0.09375 0  0.921875 0.09375 0  0.9375 0.09375 0  0.953125 0.09375 0  0.96875 0.09375 0  0.984375 0.09375 0  1 0.09375 0  0 0.109375 0  0.015625 0.109375 0  0.03125 0.109375 0  0.046875 0.109375 0  0.0625 0.109375 0  0.078125 0.109375 0  0.09375 0.109375 0  0.109375 0.109375 0  0.125 0.109375 0  0.140625 0.109375 0  0.15625 0.109375 0  0.171875 0.109375 0  0.1875 0.109375 0  0.203125 0.109375 0  0.21875 0.109375 0  0.234375 0.109375 0  0.25 0.109375 0  0.265625 0.109375 0  0.28125 0.109375 0  0.296875 0.109375 0  0.3125 0.109375 0  0.328125 0.109375 0  0.34375 0.109375 0  0.359375 0.109375 0  0.375 0.109375 0  0.390625 0.109375 0  0.40625 0.109375 0  0.421875 0.109375 0  0.4375 0.109375 0  0.453125 0.109375 0  0.46875 0.109375 0  0.484375 0.109375 0  0.5 0.109375 0  0.515625 0.109375 0  0.53125 0.109375 0  0.546875 0.109375 0  0.5625 0.109375 0  0.578125 0.109375 0  0.59375 0.109375 0  0.609375 0.109375 0  0.625 0.109375 0  0.640625 0.109375 0  0.65625 0.109375 0  0.671875 0.109375 0  0.6875 0.109375 0  0.703125 0.109375 0  0.71875 0.109375 0  0.734375 0.109375 0  0.75 0.109375 0  0.765625 0.109375 0  0.78125 0.109375 0  0.796875 0.109375 0  0.8125 0.109375 0  0.828125 0.109375 0  0.84375 0.109375 0  0.859375 0.109375 0  0.875 0.109375 0  0.890625 0.109375 0  0.90625 0.109375 0  0.921875 0.109375 0  0.9375 0.109375 0  0.953125 0.109375 0  0.96875 0.109375 0  0.984375 0.109375 0  1 0.109375 0  0 0.125 0  0.015625 0.125 0  0.03125 0.125 0  0.046875 0.125 0  0.0625 0.125 0  0.078125 0.125 0  0.09375 0.125 0  0.109375 0.125 0  0.125 0.12
[...]
<PointData  Scalars="gamma"> 
<DataArray  type="Float64"  Name="gamma"  format="ascii">3.0426867278926416e+03  2.9516728605641583e+03  2.8601654803747374e+03  2.7692396910685693e+03  2.6799648763348168e+03  2.5933768375166956e+03  2.5104532665836878e+03  2.4320937238144061e+03  2.3591048642588134e+03  2.2921911926336879e+03  2.2319511749976068e+03  2.1788781437164757e+03  2.1333651342519715e+03  2.0957126069371534e+03  2.0661379366171263e+03  2.0447855861203650e+03  2.0317369941728589e+03  2.0270193775918281e+03  2.0306128440235652e+03  2.0424554111470384e+03  2.0624457130221522e+03  2.0904433328983268e+03  2.1262668299298848e+03  2.1696896264617499e+03  2.2204339990800549e+03  2.2781634797430393e+03  2.3424740336043310e+03  2.4128844476864224e+03  2.4888264470523236e+03  2.5696351560699350e+03  2.6545406395218902e+03  2.7426613825824184e+03  2.8330006837623100e+03  2.9244470179909495e+03  3.0157794506178470e+03  3.1056791183989053e+03  3.1927476145244277e+03  3.2755328035499783e+03  3.3525621441836070e+03  3.4223830267317044e+03  3.4836089719743131e+03  3.5349698447891055e+03  3.5753635822529459e+03  3.6039064062677021e+03  3.6199781693386949e+03  3.6232594408992263e+03  3.6137572268587805e+03  3.5918168363501741e+03  3.5581183327098215e+03  3.5136571519462277e+03  3.4597097251901555e+03  3.3977861621150769e+03  3.3295730960408364e+03  3.2568705317993968e+03  3.1815268855228969e+03  3.1053763248354658e+03  3.0301820307103449e+03  2.9575881855822558e+03  2.8890824648200755e+03  2.8259697103417075e+03  2.7693564343622652e+03  2.7201449537075987e+03  2.6790353686594613e+03  2.6465333079879738e+03  2.6229613534721148e+03  3.1468372191470298e+03  3.0563276454935653e+03  2.9645406558957443e+03  2.8725541844592790e+03  2.7814567145164383e+03  2.6923177312294874e+03  2.6061608556844558e+03  2.5239410271281545e+03  2.4465267082505366e+03  2.3746876346561171e+03  2.3090881657951463e+03  2.2502858697510765e+03  2.1987346279143012e+03  2.1547913029417305e+03  2.1187248836251692e+03  2.0907269974170413e+03  2.0709227477104437e+03  2.0593809638080756e+03  2.0561231199892618e+03  2.0611303615121828e+03  2.0743482503197752e+03  2.0956889990847699e+03  2.1250310936820492e+03  2.1622163124064173e+03  2.2070442416272854e+03  2.2592644718733200e+03  2.3185667468059423e+03  2.3845694408113227e+03  2.4568068669993995e+03  2.5347160695908815e+03  2.6176239299464169e+03  2.7047356030689102e+03  2.7951254821858047e+03  2.8877320359973105e+03  2.9813579432532742e+03  3.0746769266010378e+03  3.1662485282877788e+03  3.2545417485847379e+03  3.3379679727401863e+03  3.4149229537431725e+03  3.4838368313185997e+03  3.5432303140366257e+03  3.5917743164981148e+03  3.6283496285371580e+03  3.6521027034323647e+03  3.6624934809819761e+03  3.6593313749449999e+03  3.6427961764307292e+03  3.6134416269391158e+03  3.5721807141167410e+03  3.5202532092344295e+03  3.4591774347401279e+03  3.3906895496762363e+03  3.3166746127240394e+03  3.2390942102773597e+03  3.1599154632198770e+03  3.0810457632335433e+03  3.0042767165987175e+03  2.9312396224521885e+03  2.8633735451097918e+03  2.8019058208842439e+03  2.7478438104657166e+03  2.7019759677488405e+03  2.6648798922851079e+03  2.6369349609990127e+03  3.2666718911266471e+03  3.1774397218595618e+03  3.0860374892167847e+03  2.9935313315662870e+03  2.9010174353036373e+03  2.8095912589165728e+03  2.7203185808387161e+03  2.6342099188951138e+03  2.5521995298090169e+03  2.4751297722904392e+03  2.4037411560971486e+03  2.3386679522657660e+03  2.2804388501023273e+03  2.2294818461286345e+03  2.1861323555698227e+03  2.1506434494101713e+03  2.1231971277864068e+03  2.1039156227782196e+03  2.0928718555102819e+03  2.0900983292330789e+03  2.0955939009794743e+03  2.1093280250266034e+03  2.1312421944508237e+03  2.1612484222339422e+03  2.1992247062020233e+03  2.2450075222657642e+03  2.2983814998417179e+03  2.3590665637660304e+03  2.4267029879111424e+03  2.5008350018640226e+03  2.5808938213611109e+03  2.6661812249418899e+03  2.7558550528409228e+03  2.8489182288645738e+03  2.9442130627286970e+03  3.0404226347055805e+03  3.1360809522854347e+03  3.2295932631593100e+03  3.3192673891562722e+03  3.4033562146773684e+03  3.4801105537987037e+03  3.5478405988408581e+03  3.6049831170641278e+03  3.6501706313457248e+03  3.6822981243208505e+03  3.7005824633501138e+03  3.7046098462819605e+03  3.6943671579192592e+03  3.6702541859095177e+03  3.6330750882324478e+03  3.5840091884407148e+03  3.5245629119400219e+03  3.4565062617171488e+03  3.3817984725651295e+03  3.3025082293944465e+03  3.2207340051096280e+03  3.1385296646628694e+03  3.0578395722080654e+03  2.9804461714041354e+03  2.9079315687010053e+03  2.8416532285526055e+03  2.7827326586012978e+03  2.7320550464526950e+03  2.6902772726624030e+03  2.6578415712061224e+03  3.4015444447349228e+03  3.3144637236573931e+03  3.2242160898735397e+03  3.1318374123117915e+03  3.0384161897517847e+03  2.9450622303943442e+03  2.8528760988243962e+03  2.7629210245751633e+03  2.6761986989048078e+03  2.5936300109581348e+03  2.5160413356925906e+03  2.4441565326193859e+03  2.3785943926066111e+03  2.3198709168801170e+03  2.2684055520699576e+03  2.2245303471801967e+03  2.1885009385114895e+03  2.1605082919403972e+03  2.1406902171523097e+03  2.1291417920173644e+03  2.1259239758379153e+03  2.1310698311411643e+03  2.1445879050919311e+03  2.1664624405620707e+03  2.1966501970155355e+03  2.2350737714362235e+03  2.2816114316689891e+03  2.3360836220229894e+03  2.3982364856943486e+03  2.4677229783144830e+03  2.5440824226378963e+03  2.6267196673940030e+03  2.7148853432810979e+03  2.8076590228944315e+03  2.9039373440093846e+03  3.0024292932371395e+03  3.1016608128876778e+03  3.1999906368070137e+03  3.2956387459179055e+03  3.3867280528775896e+03  3.4713389052045518e+03  3.5475748058641148e+03  3.6136364980068424e+03  3.6679003862840095e+03  3.7089963267668877e+03  3.7358792611533981e+03  3.7478891187476470e+03  3.7447939284829235e+03  3.7268121691809320e+03  3.6946119571217291e+03  3.6492865700842199e+03  3.5923078246435780e+03  3.5254607197553350e+03  3.4507643036167656e+03  3.3703847255293676e+03  3.2865467869123131e+03  3.2014499845339742e+03  3.1171941174278754e+03  3.0357181599153005e+03  2.9587544920627870e+03  2.8877989477523543e+03  2.8240956916357395e+03  2.7686348226011560e+03  2.7221599091419098e+03  2.6851824069355948e+03  3.5503718192001761e+03  3.4664133706232333e+03  3.3781963360180898e+03  3.2867039423559027e+03  3.1929973630647055e+03  3.0981847769927895e+03  3.0033899602435172e+03  2.9097221961661535e+03  2.8182491111147419e+03  2.7299737395933330e+03  2.6458167290993574e+03  2.5666041571790574e+03  2.4930609969619013e+03  2.4258098736924294e+03  2.3653744344071342e+03  2.3121864238413968e+03  2.2665954263654939e+03  2.2288801888946691e+03  2.1992604673655319e+03  2.1779084190243293e+03  2.1649586734030067e+03  2.1605163383212662e+03  2.1646623207119064e+03  2.1774554593076118e+03  2.1989310779112520e+03  2.2290956809967465e+03  2.2679176395147961e+03  2.3153138686356410e+03  2.3711326956743656e+03  2.4351333677270927e+03  2.5069629603455805e+03  2.5861318165377174e+03  2.6719890516133578e+03  2.7637000701178545e+03  2.8602284062822400e+03  2.9603244553948721e+03  3.0625237391609767e+03  3.1651571748330480e+03  3.2663753423051135e+03  3.3641879413062484e+03  3.4565185198197773e+03  3.5412732021278307e+03  3.6164206682131557e+03  3.6800791957482270e+03  3.7306053564894000e+03  3.7666781451283123e+03  3.7873720654043263e+03  3.7922131021485689e+03  3.7812125848455535e+03  3.7548756222404290e+03  3.7141828936439856e+03  3.6605468856718840e+03  3.5957458893642370e+03  3.5218409498364440e+03  3.4410822604653508e+03  3.3558120677276320e+03  3.2683709560521061e+03  3.1810134782429132e+03  3.0958376456644987e+03  3.0147310189621467e+03  2.9393342962338402e+03  2.8710216170568642e+03  2.8108954721030541e+03  2.7597932399748356e+03  2.7183019958519180e+03  3.7115864772959580e+03  3.6318058034689748e+03  3.5465947523055470e+03  3.4568578768380785e+03  3.3636051608220123e+03  3.2679226155924603e+03  3.1709410346504560e+03  3.0738047061319949e+03  2.9776418107057411e+03  2.8835380212829300e+03  2.7925144984592521e+03  2.7055110798233945e+03  2.6233750352136835e+03  2.5468553457697176e+03  2.4766020979451864e+03  2.4131702900101318e+03  2.3570271413109949e+03  2.3085618750203289e+03  2.2680969045891884e+03  2.2358993770023790e+03  2.2121920933949123e+03  2.1971629211460008e+03  2.1909719161316757e+03  2.1937554798369233e+03  2.2056269807022541e+03  2.2266733766230736e+03  2.2569474965351937e+03  2.2964557889835464e+03  2.3451415424260085e+03  2.4028638428222607e+03  2.4693728707108207e+03  2.5442825543639847e+03  2.6270420745937381e+03  2.7169082281051265e+03  2.8129211466019651e+03  2.9138862652114140e+03  3.0183656498273872e+03  3.1246817399641759e+03  3.2309361660110367e+03  3.3350455124387536e+03  3.4347947239751929e+03  3.5279073517725246e+03  3.6121301355873616e+03  3.6853276955827168e+03  3.7455815790793972e+03  3.7912867958738570e+03  3.8212384751398467e+03  3.8347015193498482e+03  3.8314571572214850e+03  3.8118220431336799e+03  3.7766378440697767e+03  3.7272318397055064e+03  3.6653516278033771e+03  3.5930792603495970e+03  3.5127317628510468e+03  3.4267558219738289e+03  3.3376243915704172e+03  3.2477421143403703e+03  3.1593649481844445e+03  3.0745374660487155e+03  2.9950492461997192e+03  2.9224098565535746e+03  2.8578403800533779e+03  2.8022783664510562e+03  2.7563925775960988e+03  3.8831064777807223e+03  3.8086229584974258e+03  3.7274773736677507e+03  3.6404664773164063e+03  3.5485213201722900e+03  3.4526807519016807e+03  3.3540616197357722e+03  3.2538273830442899e+03  3.1531569059975759e+03  3.0532150908920707e+03  2.9551267887622880e+03  2.8599551000450228e+03  2.7686847931079678e+03  2.6822111622590483e+03  2.6013342570170798e+03  2.5267580718313397e+03  2.4590940112375160e+03  2.3988677498058896e+03  2.3465284888849710e+03  2.3024595642726290e+03  2.2669893661735041e+03  2.2404015784915600e+03  2.2229438130394656e+03  2.2148337938142727e+03  2.2162623311993079e+03  2.2273924170751238e+03  2.2483538780967315e+03  2.2792331612768271e+03  2.3200580137376223e+03  2.3707770787730642e+03  2.4312347817002392e+03  2.5011423307215568e+03  2.5800462037651419e+03  2.6672961037057121e+03  2.7620149871441363e+03  2.8630743254568215e+03  2.9690781396998891e+03  3.0783594528429417e+03  3.1889925224227468e+03  3.2988234835426124e+03  3.4055208281537944e+03  3.5066455228995028e+03  3.5997386518370677e+03  3.6824224593898630e+03  3.7525088095975193e+03  3.8081076331183162e+03  3.8477271420154366e+03  3.8703576265912120e+03  3.8755315801518936e+03  3.8633546769227974e+03  3.8345045826303231e+03  3.7901974296727431e+03  3.7321246960120479e+03  3.6623658297766146e+03  3.5832839401609335e+03  3.4974129987354449e+03  3.4073451574174287e+03  3.3156260224291013e+03  3.2246641886708594e+03  3.1366592940413648e+03  3.0535506058801520e+03  2.9769860060537167e+03  2.9083094502110889e+03  2.8485637085528306e+03  2.7985045192513903e+03  4.0623313174240602e+03  3.9942987474485972e+03  3.9183380606626615e+03  3.8351068942485645e+03  3.7454264454799982e+03  3.6502594089998674e+03  3.5506831324283235e+03  3.4478595181183064e+03  3.3430033600442525e+03  3.2373508308434325e+03  3.1321297283355771e+03  3.0285328702494244e+03  2.9276957177562085e+03  2.8306789465319671e+03  2.7384563039668074e+03  2.6519077255890825e+03  2.5718173592034477e+03  2.4988758794164673e+03  2.4336862764489465e+03  2.3767721709077764e+03  2.3285876330333849e+03  2.2895274590207550e+03  2.2599368651444133e+03  2.2401195910315346e+03  2.2303434492172355e+03  2.2308424180993138e+03  2.2418144561856443e+03  2.2634143314928347e+03  2.2957409321931082e+03  2.3388187781241822e+03  2.3925738118347931e+03  2.4568040293664662e+03  2.5311461165334786e+03  2.6150399639302241e+03  2.7076936907312747e+03  2.8080525279477210e+03  2.9147754813353426e+03  3.0262239805672680e+03  3.1404665954601023e+03  3.2553032617896947e+03  3.3683112646371660e+03  3.4769135112434492e+03  3.5784675135429015e+03  3.6703712049428564e+03  3.7501795136045334e+03  3.8157238105193715e+03  3.8652252309490273e+03  3.8973926499061454e+03  3.9114968836898856e+03  3.9074144608811839e+03  3.8856368870066003e+03  3.8472444239377010e+03  3.7938466422035385e+03  3.7274949791664858e+03  3.6505748807489126e+03  3.5656865432418690e+03  3.4755236625145335e+03  3.3827589511961037e+03  3.2899436559154246e+03  3.1994261653419380e+03  3.1132923772908421e+03  3.0333281261542825e+03  2.9610019480714050e+03  2.8974649798380838e+03  2.8435639407990998e+03  4.2461704384822579e+03  4.1857398529906304e+03  4.1161109387207071e+03  4.0377699112508258e+03  3.9513950661220651e+03  3.8578407766811797e+03  3.7581152962111514e+03  3.6533535790465689e+03  3.5447866104408449e+03  3.4337088939233399e+03  3.3214457789479311e+03  3.2093222246156465e+03  3.0986344023016750e+03  2.9906252649032922e+03  2.8864648819607678e+03  2.7872359880805743e+03  2.6939248445248818e+03  2.6074171930027255e+03  2.5284988022683333e+03  2.4578598804585417e+03  2.3961024508470023e+03  2.3437496623272004e+03  2.3012559218435813e+03  2.2690166869095974e+03  2.2473767368877539e+03  2.2366357506884528e+03  2.2370500609787841e+03  2.2488295433034250e+03  2.2721287526218684e+03  2.3070316654310204e+03  2.3535297505847807e+03  2.4114935992750065e+03  2.4806390039834550e+03  2.5604891732483793e+03  2.6503356560122570e+03  2.7492014389912124e+03  2.8558104477353286e+03  2.9685681746446267e+03  3.0855582176124740e+03  3.2045590083699203e+03  3.3230838653889205e+03  3.4384457354065980e+03  3.5478457084509419e+03  3.6484818263138973e+03  3.7376721590975221e+03  3.8129839459786845e+03  3.8723591200277797e+03  3.9142260290451568e+03  3.9375877723563531e+03  3.9420792932318996e+03  3.9279880338838848e+03  3.8962362687002960e+03  3.8483267760901426e+03  3.7862568458074352e+03  3.7124083320072514e+03  3.6294232309334393e+03  3.5400749060129469e+03  3.4471445878105164e+03  3.3533112883547687e+03  3.2610610644051926e+03  3.1726189943770705e+03  3.0899046651039530e+03  3.0145097183106523e+03  2.9476943130722184e+03  2.8903983363318216e+03  4.4311090275926226e+03  4.3793857027090335e+03  4.3172234512892892e+03  4.2449052218632351e+03  4.1629325829822419e+03  4.0720174212104330e+03  3.9730661800861021e+03  3.8671574167949320e+03  3.7555138288579319e+03  3.6394701942701986e+03  3.5204388554828456e+03  3.3998744509112544e+03  3.2792395581592582e+03  3.1599727709601689e+03  3.0434605041319965e+03  2.9310135292441901e+03  2.8238489115272482e+03  2.7230776684537909e+03  2.6296981224808605e+03  2.5445945911126046e+03  2.4685407590569457e+03  2.4022068181798727e+03  2.3461692462101973e+03  2.3009219273563458e+03  2.2668871988142487e+03  2.2444253389733321e+03  2.2338410011540727e+03  2.2353851509675555e+03  2.2492512022880946e+03  2.2755642893441554e+03  2.3143629878936104e+03  2.3655733331024121e+03  2.4289756917137761e+03  2.5041659255003647e+03  2.5905132913981247e+03  2.6871185764734214e+03  2.7927769317354546e+03  2.9059505788139882e+03  3.0247568330236991e+03  3.1469765486234483e+03  3.2700870381158129e+03  3.3913217329266831e+03  3.5077564427414291e+03  3.6164192631927817e+03  3.7144183065681323e+03  3.7990788755844228e+03  3.8680798512893143e+03  3.9195782398247607e+03  3.9523112098104607e+03  3.9656665773758073e+03  3.9597154058703404e+03  3.9352038672653771e+03  3.8935053310089829e+03  3.8365373209386726e+03  3.7666510519033209e+03  3.6865033585155666e+03  3.5989217404752321e+03  3.5067729306914571e+03  3.4128439778983234e+03  3.3197426026450212e+03  3.2298209023533673e+03  3.1451237393626852e+03  3.0673606967994428e+03  2.9978985910722013e+03  2.9377703282866842e+03  4.6133124030595236e+03  4.5713097490750706e+03  4.5176930247401096e+03  4.4525121141304799e+03  4.3760588262296578e+03  4.2888678556428194e+03  4.1917092579544342e+03  4.0855726578146882e+03  3.9716438618147736e+03  3.8512749618300913e+03  3.7259493594923470e+03  3.5972433968119080e+03  3.4667864272528896e+03  3.3362211991353820e+03  3.2071663498559124e+03  3.0811826322776919e+03  2.9597442262584850e+03  2.8442161453590793e+03  2.7358383512005244e+03  2.6357167578539115e+03  2.5448208694424134e+03  2.4639873692585179e+03  2.3939285902580859e+03  2.3352444641426832e+03  2.2884362849463046e+03  2.2539204446917984e+03  2.2320402119572423e+03  2.2230736372071542e+03  2.2272357921337561e+03  2.2446737998681306e+03  2.2754535104814863e+03  2.3195372462432033e+03  2.3767528030915978e+03  2.4467548504762926e+03  2.5289809899494762e+03  2.6226059355331608e+03  2.7264984339343609e+03  2.8391864693960142e+03  2.9588367879895968e+03  3.0832546296699011e+03  3.2099086279014773e+03  3.3359840800734437e+03  3.4584652932461931e+03  3.5742446965905033e+03  3.6802532340445368e+03  3.7736036334075184e+03  3.8517359249817414e+03  3.9125534220602576e+03  3.9545375127430398e+03  3.9768311045779105e+03  3.9792832712996742e+03  3.9624512555013548e+03  3.9275600300449296e+03  3.8764235977722205e+03  3.8113356125774239e+03  3.7349393264941464e+03  3.6500880512833874e+03  3.5597071997163043e+03  3.4666676598911386e+03  3.3736780317547996e+03  3.2832004971880842e+03  3.1973922158340151e+03  3.1180715156987117e+03  3.0467060679297497e+03  2.9844188644511605e+03  4.7887662288465126e+03  4.7573598911733161e+03  4.7132658678795069e+03  4.6562748385439918e+03  4.5864382877899943e+03  4.5040801215580577e+03  4.4097990877264183e+03  4.3044615516093745e+03  4.1891846793102186e+03  4.0653105994129769e+03  3.9343726126654365e+03  3.7980549676079268e+03  3.6581480877719928e+03  3.5165013976301952e+03  3.3749760299830577e+03  3.2353996936721760e+03  3.0995258319955406e+03  2.9689989125452585e+03  2.8453272718841617e+03  2.7298644172996633e+03  2.6237990961608275e+03  2.5281538219195063e+03  2.4437909390716427e+03  2.3714247610012781e+03  2.3116378622991097e+03  2.2648992790252214e+03  2.2315821836517521e+03  2.2119785639709157e+03  2.2063085501652840e+03  2.2147223055901040e+03  2.2372928344510774e+03  2.2739986799649860e+03  2.3246963076395832e+03  2.3890829970662571e+03  2.4666522808626009e+03  2.5566453032522654e+03  2.6580027960380589e+03  2.7693235001824187e+03  2.8888355700777474e+03  3.0143875549977251e+03  3.1434647762124191e+03  3.2732352281307699e+03  3.4006265895747606e+03  3.5224327578869543e+03  3.6354448776638133e+03  3.7365985849763579e+03  3.8231266055845535e+03  3.8927043492190546e+03  3.9435760121349072e+03  3.9746500271364362e+03  3.9855553625594380e+03  3.9766538503973520e+03  3.9490079506135221e+03  3.9043075887978807e+03  3.8447634009799576e+03  3.7729764362437950e+03  3.6917958143717005e+03  3.6041759154437109e+03  3.5130434926369981e+03  3.4211829190408744e+03  3.3311449882618249e+03  3.2451817138255510e+03  3.1652068119757237e+03  3.0927793169536544e+03  3.0291062542760869e+03  4.9534455064950916e+03  4.9333312527021199e+03  4.8995915164074449e+03  4.8517367868436968e+03  4.7895517754093971e+03  4.7131188244066088e+03  4.6228317912137445e+03  4.5193992008014839e+03  4.4038359740873748e+03  4.2774436342491445e+03  4.1417795334774055e+03  3.9986162886463467e+03  3.8498932220908600e+03  3.6976621276981987e+03  3.5440300788076424e+03  3.3911022237036959e+03  3.2409275463175545e+03  3.0954503867577700e+03  2.9564701182712606e+03  2.8256107840448799e+03  2.7043017495030899e+03  2.5937695824091070e+03  2.4950405056315012e+03  2.4089519511672734e+03  2.3361710478412383e+03  2.2772173524641580e+03  2.2324868174113367e+03  2.2022738873804510e+03  2.1867887291444345e+03  2.1861669082971134e+03  2.2004693274669353e+03  2.2296709322473948e+03  2.2736375840768669e+03  2.3320916019296219e+03  2.4045677750453597e+03  2.4903630920427718e+03  2.5884849007102534e+03  2.6976035227222637e+03  2.8160162601303086e+03  2.9416299909838035e+03  3.0719689438854698e+03  3.2042126495719704e+03  3.3352665259932323e+03  3.4618642705399952e+03  3.5806975797848490e+03  3.6885651765904040e+03  3.7825302146096706e+03  3.8600733135560718e+03  3.9192280785056760e+03  3.958687096528765