<?xml version="1.0"?>
<VTKFile type="UnstructuredGrid"  version="0.1"  >
<UnstructuredGrid>
<Piece  NumberOfPoints="676" NumberOfCells="1250">
<Points>
<DataArray  type="Float64"  NumberOfComponents="3"  format="ascii">0 0 0  0.04 0 0  0.08 0 0  0.12 0 0  0.16 0 0  0.2 0 0  0.24 0 0  0.28 0 0  0.32 0 0  0.36 0 0  0.4 0 0  0.44 0 0  0.48 0 0  0.52 0 0  0.5600000000000001 0 0  0.6 0 0  0.64 0 0  0.68 0 0  0.72 0 0  0.76 0 0  0.8 0 0  0.84 0 0  0.88 0 0  0.92 0 0  0.96 0 0  1 0 0  0 0.04 0  0.04 0.04 0  0.08 0.04 0  0.12 0.04 0  0.16 0.04 0  0.2 0.04 0  0.24 0.04 0  0.28 0.04 0  0.32 0.04 0  0.36 0.04 0  0.4 0.04 0  0.44 0.04 0  0.48 0.04 0  0.52 0.04 0  0.5600000000000001 0.04 0  0.6 0.04 0  0.64 0.04 0  0.68 0.04 0  0.72 0.04 0  0.76 0.04 0  0.8 0.04 0  0.84 0.04 0  0.88 0.04 0  0.92 0.04 0  0.96 0.04 0  1 0.04 0  0 0.08 0  0.04 0.08 0  0.08 0.08 0  0.12 0.08 0  0.16 0.08 0  0.2 0.08 0  0.24 0.08 0  0.28 0.08 0  0.32 0.08 0  0.36 0.08 0  0.4 0.08 0  0.44 0.08 0  0.48 0.08 0  0.52 0.08 0  0.5600000000000001 0.08 0  0.6 0.08 0  0.64 0.08 0  0.68 0.08 0  0.72 0.08 0  0.76 0.08 0  0.8 0.08 0  0.84 0.08 0  0.88 0.08 0  0.92 0.08 0  0.96 0.08 0  1 0.08 0  0 0.12 0  0.04 0.12 0  0.08 0.12 0  0.12 0.12 0  0.16 0.12 0  0.2 0.12 0  0.24 0.12 0  0.28 0.12 0  0.32 0.12 0  0.36 0.12 0  0.4 0.12 0  0.44 0.12 0  0.48 0.12 0  0.52 0.12 0  0.5600000000000001 0.12 0  0.6 0.12 0  0.64 0.12 0  0.68 0.12 0  0.72 0.12 0  0.76 0.12 0  0.8 0.12 0  0.84 0.12 0  0.88 0.12 0  0.92 0.12 0  0.96 0.12 0  1 0.12 0  0 0.16 0  0.04 0.16 0  0.08 0.16 0  0.12 0.16 0  0.16 0.16 0  0.2 0.16 0  0.24 0.16 0  0.28 0.16 0  0.32 0.16 0  0.36 0.16 0  0.4 0.16 0  0.44 0.16 0  0.48 0.16 0  0.52 0.16 0  0.5600000000000001 0.16 0  0.6 0.16 0  0.64 0.16 0  0.68 0.16 0  0.72 0.16 0  0.76 0.16 0  0.8 0.16 0  0.84 0.16 0  0.88 0.16 0  0.92 0.16 0  0.96 0.16 0  1 0.16 0  0 0.2 0  0.04 0.2 0  0.08 0.2 0  0.12 0.2 0  0.16 0.2 0  0.2 0.2 0  0.24 0.2 0  0.28 0.2 0  0.32 0.2 0  0.36 0.2 0  0.4 0.2 0  0.44 0.2 0  0.48 0.2 0  0.52 0.2 0  0.5600000000000001 0.2 0  0.6 0.2 0  0.64 0.2 0  0.68 0.2 0  0.72 0.2 0  0.76 0.2 0  0.8 0.2 0  0.84 0.2 0  0.88 0.2 0  0.92 0.2 0  0.96 0.2 0  1 0.2 0  0 0.24 0  0.04 0.24 0  0.08 0.24 0  0.12 0.24 0  0.16 0.24 0  0.2 0.24 0  0.24 0.24 0  0.28 0.24 0  0.32 0.24 0  0.36 0.24 0  0.4 0.24 0  0.44 0.24 0  0.48 0.24 0  0.52 0.24 0  0.5600000000000001 0.24 0  0.6 0.24 0  0.64 0.24 0  0.68 0.24 0  0.72 0.24 0  0.76 0.24 0  0.8 0.24 0  0.84 0.24 0  0.88 0.24 0  0.92 0.24 0  0.96 0.24 0  1 0.24 0  0 0.28 0  0.04 0.28 0  0.08 0.28 0  0.12 0.28 0  0.16 0.28 0  0.2 0.28 0  0.24 0.28 0  0.28 0.28 0  0.32 0.28 0  0.36 0.28 0  0.4 0.28 0  0.44 0.28 0  0.48 0.28 0  0.52 0.28 0  0.5600000000000001 0.28 0  0.6 0.28 0  0.64 0.28 0  0.68 0.28 0  0.72 0.28 0  0.76 0.28 0  0.8 0.28 0  0.84 0.28 0  0.88 0.28 0  0.92 0.28 0  0.96 0.28 0  1 0.28 0  0 0.32 0  0.04 0.32 0  0.08 0.32 0  0.12 0.32 0  0.16 0.32 0  0.2 0.32 0  0.24 0.32 0  0.28 0.32 0  0.32 0.32 0  0.36 0.32 0  0.4 0.32 0  0.44 0.32 0  0.48 0.32 0  0.52 0.32 0  0.5600000000000001 0.32 0  0.6 0.32 0  0.64 0.32 0  0.68 0.32 0  0.72 0.32 0  0.76 0.32 0  0.8 0.32 0  0.84 0.32 0  0.88 0.32 0  0.92 0.32 0  0.96 0.32 0  1 0.32 0  0 0.36 0  0.04 0.36 0  0.08 0.36 0  0.12 0.36 0  0.16 0.36 0  0.2 0.36 0  0.24 0.36 0  0.28 0.36 0  0.32 0.36 0  0.36 0.36 0  0.4 0.36 0  0.44 0.36 0  0.48 0.36 0  0.52 0.36 0  0.5600000000000001 0.36 0  0.6 0.36 0  0.64 0.36 0  0.68 0.36 0  0.72 0.36 0  0.76 0.36 0  0.8 0.36 0  0.84 0.36 0  0.88 0.36 0  0.92 0.36 0  0.96 0.36 0  1 0.36 0  0 0.4 0  0.04 0.4 0  0.08 0.4 0  0.12 0.4 0  0.16 0.4 0  0.2 0.4 0  0.24 0.4 0  0.28 0.4 0  0.32 0.4 0  0.36 0.4 0  0.4 0.4 0  0.44 0.4 0  0.48 0.4 0  0.52 0.4 0  0.5600000000000001 0.4 0  0.6 0.4 0  0.64 0.4 0  0.68 0.4 0  0.72 0.4 0  0.76 0.4 0  0.8 0.4 0  0.84 0.4 0  0.88 0.4 0  0.92 0.4 0  0.96 0.4 0  1 0.4 0  0 0.44 0  0.04 0.44 0  0.08 0.44 0  0.12 0.44 0  0.16 0.44 0  0.2 0.44 0  0.24 0.44 0  0.28 0.44 0  0.32 0.44 0  0.36 0.44 0  0.4 0.44 0  0.44 0.44 0  0.48 0.44 0  0.52 0.44 0  0.5600000000000001 0.44 0  0.6 0.44 0  0.64 0.44 0  0.68 0.44 0  0.72 0.44 0  0.76 0.44 0  0.8 0.44 0  0.84 0.44 0  0.88 0.44 0  0.92 0.44 0  0.96 0.44 0  1 0.44 0  0 0.48 0  0.04 0.48 0  0.08 0.48 0  0.12 0.48 0  0.16 0.48 0  0.2 0.48 0  0.24 0.48 0  0.28 0.48 0  0.32 0.48 0  0.36 0.48 0  0.4 0.48 0  0.44 0.48 0  0.48 0.48 0  0.52 0.48 0  0.5600000000000001 0.48 0  0.6 0.48 0  0.64 0.48 0  0.68 0.48 0  0.72 0.48 0  0.76 0.48 0  0.8 0.48 0  0.84 0.48 0  0.88 0.48 0  0.92 0.48 0  0.96 0.48 0  1 0.48 0  0 0.52 0  0.04 0.52 0  0.08 0.52 0  0.12 0.52 0  0.16 0.52 0  0.2 0.52 0  0.24 0.52 0  0.28 0.52 0  0.32 0.52 0  0.36 0.52 0  0.4 0.52 0  0.44 0.52 0  0.48 0.52 0  0.52 0.52 0  0.5600000000000001 0.52 0  0.6 0.52 0  0.64 0.52 0  0.68 0.52 0  0.72 0.52 0  0.76 0.52 0  0.8 0.52 0  0.84 0.52 0  0.88 0.52 0  0.92 0.52 0  0.96 0.52 0  1 0.52 0  0 0.5600000000000001 0  0.04 0.5600000000000001 0  0.08 0.5600000000000001 0  0.12 0.5600000000000001 0  0.16 0.5600000000000001 0  0.2 0.5600000000000001 0  0.24 0.5600000000000001 0  0.28 0.5600000000000001 0  0.32 0.5600000000000001 0  0.36 0.5600000000000001 0  0.4 0.5600000000000001 0  0.44 0.5600000000000001 0  0.48 0.5600000000000001 0  0.52 0.5600000000000001 0  0.5600000000000001 0.5600000000000001 0  0.6 0.5600000000000001 0  0.64 0.5600000000000001 0  0.68 0.5600000000000001 0  0.72 0.5600000000000001 0  0.76 0.5600000000000001 0  0.8 0.5600000000000001 0  0.84 0.5600000000000001 0  0.88 0.5600000000000001 0  0.92 0.5600000000000001 0  0.96 0.5600000000000001 0  1 0.5600000000000001 0  0 0.6 0  0.04 0.6 0  0.08 0.6 0  0.12 0.6 0  0.16 0.6 0  0.2 0.6 0  0.24 0.6 0  0.28 0.6 0  0.32 0.6 0  0.36 0.6 0  0.4 0.6 0  0.44 0.6 0  0.48 0.6 0  0.52 0.6 0  0.5600000000000001 0.6 0  0.6 0.6 0  0.64 0.6 0  0.68 0.6 0  0.72 0.6 0  0.76 0.6 0  0.8 0.6 0  0.84 0.6 0  0.88 0.6 0  0.92 0.6 0  0.96 0.6 0  1 0.6 0  0 0.64 0  0.04 0.64 0  0.08 0.64 0  0.12 0.64 0  0.16 0.64 0  0.2 0.64 0  0.24 0.64 0  0.28 0.64 0  0.32 0.64 0  0.36 0.64 0  0.4 0.64 0  0.44 0.64 0  0.48 0.64 0  0.52 0.64 0  0.5600000000000001 0.64 0  0.6 0.64 0  0.64 0.64 0  0.68 0.64 0  0.72 0.64 0  0.76 0.64 0  0.8 0.64 0  0.84 0.64 0  0.88 0.64 0  0.92 0.64 0  0.96 0.64 0  1 0.64 0  0 0.68 0  0.04 0.68 0  0.08 0.68 0  0.12 0.68 0  0.16 0.68 0  0.2 0.68 0  0.24 0.68 0  0.28 0.68 0  0.32 0.68 0  0.36 0.68 0  0.4 0.68 0  0.44 0.68 0  0.48 0.68 0  0.52 0.68 0  0.5600000000000001 0.68 0  0.6 0.68 0  0.64 0.68 0  0.68 0.68 0  0.72 0.68 0  0.76 0.68 0  0.8 0.68 0  0.84 0.68 0  0.88 0.68 0  0.92 0.68 0  0.96 0.68 0  1 0.68 0  0 0.72 0  0.04 0.72 0  0.08 0.72 0  0.12 0.72 0  0.16 0.72 0  0.2 0.72 0  0.24 0.72 0  0.28 0.72 0  0.32 0.72 0  0.36 0.72 0  0.4 0.72 0  0.44 0.72 0  0.48 0.72 0  0.52 0.72 0  0.5600000000000001 0.72 0  0.6 0.72 0  0.64 0.72 0  0.68 0.72 0  0.72 0.72 0  0.76 0.72 0  0.8 0.72 0  0.84 0.72 0  0.88 0.72 0  0.92 0.72 0  0.96 0.72 0  1 0.72 0  0 0.76 0  0.04 0.76 0  0.08 0.76 0  0.12 0.76 0  0.16 0.76 0  0.2 0.76 0  0.24 0.76 0  0.28 0.76 0  0.32 0.76 0  0.36 0.76 0  0.4 0.76 0  0.44 0.76 0  0.48 0.76 0  0.52 0.76 0  0.5600000000000001 0.76 0  0.6 0.76 0  0.64 0.76 0  0.68 0.76 0  0.72 0.76 0  0.76 0.76 0  0.8 0.76 0  0.84 0.76 0  0.88 0.76 0  0.92 0.76 0  0.96 0.76 0  1 0.76 0  0 0.8 0  0.04 0.8 0  0.08 0.8 0  0.12 0.8 0  0.16 0.8 0  0.2 0.8 0  0.24 0.8 0  0.28 0.8 0  0.32 0.8 0  0.36 0.8 0  0.4 0.8 0  0.44 0.8 0  0.48 0.8 0  0.52 0.8 0  0.5600000000000001 0.8 0  0.6 0.8 0  0.64 0.8 0  0.68 0.8 0  0.72 0.8 0  0.76 0.8 0  0.8 0.8 0  0.84 0.8 0  0.88 0.8 0  0.92 0.8 0  0.96 0.8 0  1 0.8 0  0 0.84 0  0.04 0.84 0  0.08 0.84 0  0.12 0.84 0  0.16 0.84 0  0.2 0.84 0  0.24 0.84 0  0.28 0.84 0  0.32 0.84 0  0.36 0.84 0  0.4 0.84 0  0.44 0.84 0  0.48 0.84 0  0.52 0.84 0  0.5600000000000001 0.84 0  0.6 0.84 0  0.64 0.84 0  0.68 0.84 0  0.72 0.84 0  0.76 0.84 0  0.8 0.84 0  0.84 0.84 0  0.88 0.84 0  0.92 0.84 0  0.96 0.84 0  1 0.84 0  0 0.88 0  0.04 0.88 0  0.08 0.88 0  0.12 0.88 0  0.16 0.88 0  0.2 0.88 0  0.24 0.88 0  0.28 0.88 0  0.32 0.88 0  0.36 0.88 0  0.4 0.88 0  0.44 0.88 0  0.48 0.88 0  0.52 0.88 0  0.5600000000000001 0.88 0  0.6 0.88 0  0.64 0.88 0  0.68 0.88 0  0.72 0.88 0  0.76 0.88 0  0.8 0.88 0  0.84 0.88 0  0.88 0.88 0  0.92 0.88 0  0.96 0.88 0  1 0.88 0  0 0.92 0  0.04 0.92 0  0.08 0.92 0  0.12 0.92 0  0.16 0.92 0  0.2 0.92 0  0.24 0.92 0  0.28 0.92 0  0.32 0.92 0  0.36 0.92 0  0.4 0.92 0  0.44 0.92 0  0.48 0.92 0  0.52 0.92 0  0.5600000000000001 0.92 0  0.6 0.92 0  0.64 0.92 0  0.68 0.92 0  0.72 0.92 0  0.76 0.92 0  0.8 0.92 0  0.84 0.92 0  0.88 0.92 0  0.92 0.92 0  0.96 0.92 0  1 0.92 0  0 0.96 0  0.04 0.96 0  0.08 0.96 0  0.12 0.96 0  0.16 0.96 0  0.2 0.96 0  0.24 0.96 0  0.28 0.96 0  0.32 0.96 0  0.36 0.96 0  0.4 0.96 0  0.44 0.96 0  0.48 0.96 0  0.52 0.96 0  0.5600000000000001 0.96 0  0.6 0.96 0  0.64 0.96 0  0.68 0.96 0  0.72 0.96 0  0.76 0.96 0  0.8 0.96 0  0.84 0.96 0  0.88 0.96 0  0.92 0.96 0  0.96 0.96 0  1 0.96 0  0 1 0  0.04 1 0  0.08 1 0  0.12 1 0  0.16 1 0  0.2 1 0  0.24 1 0  0.28 1 0  0.32 1 0  0.36 1 0  0.4 1 0  0.44 1 0  0.48 1 0  0.52 1 0  0.5600000000000001 1 0  0.6 1 0  0.64 1 0  0.68 1 0  0.72 1 0  0.76 1 0  0.8 1 0  0.84 1 0  0.88 1 0  0.92 1 0  0.96 1 0  1 1 0  </DataArray>
</Points>
<Cells>
[...]
<PointData  Scalars="gamma"> 
<DataArray  type="Float64"  Name="gamma"  format="ascii">4.0022511331781411e+03  4.0024771945775274e+03  4.0027701753728370e+03  4.0033062188871995e+03  4.0042934087188705e+03  4.0059056294468273e+03  4.0082102579631796e+03  4.0111158767627039e+03  4.0143608384623249e+03  4.0175498393012995e+03  4.0202295951638416e+03  4.0219824203899157e+03  4.0225119402401929e+03  4.0216990831922631e+03  4.0196167511180179e+03  4.0165041725444853e+03  4.0127125718042448e+03  4.0086392356092288e+03  4.0046663004595271e+03  4.0011149747141812e+03  3.9982184895439359e+03  3.9961112026956030e+03  3.9948290955256662e+03  3.9943182939973244e+03  3.9944509829559547e+03  3.9950493011718054e+03  4.0036316652087694e+03  4.0038239268153525e+03  4.0039288243086285e+03  4.0041462764576131e+03  4.0047432715901959e+03  4.0059715169884685e+03  4.0079714543906975e+03  4.0106977393537445e+03  4.0138951757629297e+03  4.0171363639456699e+03  4.0199109676611811e+03  4.0217399059672853e+03  4.0222813035280906e+03  4.0213997794175075e+03  4.0191838451594285e+03  4.0159126022295591e+03  4.0119868690275512e+03  4.0078470940135621e+03  4.0038995232806960e+03  4.0004647589777128e+03  3.9977528825179793e+03  3.9958609698116293e+03  3.9947849566048758e+03  3.9944387144435973e+03  3.9946766785936957e+03  3.9953192220324872e+03  4.0054101914412199e+03  4.0055216921653523e+03  4.0053058234026321e+03  4.0049762318302414e+03  4.0048624853032738e+03  4.0053116679192867e+03  4.0065658750322968e+03  4.0086608180988032e+03  4.0113841712788690e+03  4.0143101486128053e+03  4.0168995340919791e+03  4.0186329175781848e+03  4.0191361851255688e+03  4.0182628211174620e+03  4.0161138413103404e+03  4.0129966466788837e+03  4.0093415875152818e+03  4.0056042117686025e+03  4.0021802208509766e+03  3.9993510299246923e+03  3.9972650804851774e+03  3.9959487988196229e+03  3.9953349908202863e+03  3.9952964273339926e+03  3.9956765537507781e+03  3.9963143253872859e+03  4.0075504675088723e+03  4.0075399187498269e+03  4.0068816008331919e+03  4.0057914473574951e+03  4.0046628306799871e+03  4.0039529849181490e+03  4.0040320371844914e+03  4.0050508425801199e+03  4.0068770838510177e+03  4.0091223497802334e+03  4.0112493170197349e+03  4.0127214497548757e+03  4.0131464596609517e+03  4.0123709239094110e+03  4.0105027543666988e+03  4.0078627500062689e+03  4.0048875853379886e+03  4.0020178281095668e+03  3.9996036777536742e+03  3.9978502630250568e+03  3.9968087336766885e+03  3.9964049374892079e+03  3.9964886669119519e+03  3.9968850270460043e+03  3.9974342355447470e+03  3.9980139160929316e+03  4.0099830525797684e+03  4.0098316160876043e+03  4.0086525296875857e+03  4.0066532965993847e+03  4.0042898287816811e+03  4.0021390516011015e+03  4.0007186136736127e+03  4.0003213266146472e+03  4.0009253756249891e+03  4.0022099672840527e+03  4.0036660132781512e+03  4.0047593547477622e+03  4.0050902721457855e+03  4.0044996780717584e+03  4.0030945245139997e+03  4.0011933675195442e+03  3.9992176542937027e+03  3.9975676048417358e+03  3.9965208470059233e+03  3.9961795786350499e+03  3.9964736954253258e+03  3.9972096211794451e+03  3.9981427838245922e+03  3.9990484967303300e+03  3.9997711792084815e+03  4.0002425330624992e+03  4.0126239262040172e+03  4.0123517232629833e+03  4.0106460088594058e+03  4.0076973764345666e+03  4.0040202698901726e+03  4.0003134071299060e+03  3.9972505726242130e+03  3.9952807600319679e+03  3.9945104762714968e+03  3.9947051786678758e+03  3.9954003998888734e+03  3.9960757411496061e+03  3.9963285705480826e+03  3.9959912457459209e+03  3.9951603273678211e+03  3.9941381582589811e+03  3.9933150245181942e+03  3.9930354032824630e+03  3.9934914095684321e+03  3.9946729155468624e+03  3.9963830458839120e+03  3.9983069807153192e+03  4.0001072304614663e+03  4.0015134825587147e+03  4.0023805585468208e+03  4.0027015863298711e+03  4.0153913106882710e+03  4.0150681345533703e+03  4.0129193058242099e+03  4.0091126640919483e+03  4.0042138577998066e+03  3.9990364832169475e+03  3.9944058162755837e+03  3.9909258111844806e+03  3.9888334875133328e+03  3.9879848934317110e+03  3.9879645047564140e+03  3.9882676252223691e+03  3.9884865596235531e+03  3.9884384749966580e+03  3.9881996026625770e+03  3.9880453189991608e+03  3.9883262731088075e+03  3.9893278022544782e+03  3.9911598789831510e+03  3.9937102430548489e+03  3.9966706012565742e+03  3.9996223968069858e+03  4.0021512914907421e+03  4.0039527585467326e+03  4.0048968141100850e+03  4.0050359957935211e+03  4.0182104672196979e+03  4.0179555944930594e+03  4.0155348487847091e+03  4.0110894117071293e+03  4.0052247620383000e+03  3.9988528278804743e+03  3.9929321486581257e+03  3.9882051093944347e+03  3.9850265213895518e+03  3.9833343939627339e+03  3.9827562653282985e+03  3.9827978694089766e+03  3.9830399434712208e+03  3.9832761386519301e+03  3.9835533356783130e+03  3.9841128888674325e+03  3.9852641675157665e+03  3.9872402811740540e+03  3.9900862426546723e+03  3.9936145491776051e+03  3.9974389180664530e+03  4.0010716378858301e+03  4.0040508137699862e+03  4.0060559299186471e+03  4.0069760330724721e+03  4.0069127910664729e+03  4.0210016040771575e+03  4.0209698781994712e+03  4.0185140678376883e+03  4.0137454709829035e+03  4.0072934862391994e+03  4.0001426948136623e+03  3.9933546932453542e+03  3.9877811707761743e+03  3.9838708019983883e+03  3.9816264314975033e+03  3.9807074871681821e+03  3.9806225574580758e+03  3.9809343427590848e+03  3.9814062647188803e+03  3.9820494381700887e+03  3.9830675228369596e+03  3.9847313074744752e+03  3.9872343332376986e+03  3.9905814194638042e+03  3.9945461963985290e+03  3.9987086065683748e+03  4.0025570824828596e+03  4.0056201958136480e+03  4.0075845090716839e+03  4.0083617054947863e+03  4.0080870777055343e+03  4.0236546360020025e+03  4.0240096608869794e+03  4.0217826684339516e+03  4.0170514567575819e+03  4.0104490545388157e+03  4.0029994282196562e+03  3.9958279641807021e+03  3.9898580784015576e+03  3.9856023069080843e+03  3.9831085141057151e+03  3.9820576368228490e+03  3.9819571151586015e+03  3.9823502799002399e+03  3.9829689439475710e+03  3.9837864236593828e+03  3.9849677875204875e+03  3.9867490691216108e+03  3.9892968766736703e+03  3.9926002383670730e+03  3.9964303848399268e+03  4.0003787137048262e+03  4.0039569845896717e+03  4.0067244486199675e+03  4.0083994666405783e+03  4.0089203274013553e+03  4.0084391916921686e+03  4.0260023619255498e+03  4.0268816852574987e+03  4.0251276477571100e+03  4.0207803090776806e+03  4.0144527046687849e+03  4.0071696375165629e+03  4.0000753489125541e+03  3.9941231773861959e+03  3.9898582385658842e+03  3.9873560240822653e+03  3.9863145587257995e+03  3.9862446114452955e+03  3.9866782030239256e+03  3.9873226414163287e+03  3.9881173615974467e+03  3.9891902793512277e+03  3.9907448777083732e+03  3.9929282999833276e+03  3.9957304801044838e+03  3.9989478303381593e+03  4.0022197949223314e+03  4.0051215017589402e+03  4.0072783220405008e+03  4.0084631074157983e+03  4.0086452814546028e+03  4.0079796505034551e+03  4.0278070473022499e+03  4.0292873679322915e+03  4.0281867956300498e+03  4.0245036702920584e+03  4.0188059926246301e+03  4.0120782772778457e+03  4.0054361527015371e+03  3.9998200750363258e+03  3.9957782666233197e+03  3.9934017287635497e+03  3.9924097149236673e+03  3.9923316360088706e+03  3.9927077210786097e+03  3.9932380004849933e+03  3.9938388646066896e+03  3.9946048191468863e+03  3.9957059935839411e+03  3.9972693437931184e+03  3.9992899551448786e+03  4.0016018757166116e+03  4.0039134319040190e+03  4.0058890149203639e+03  4.0072450913504604e+03  4.0078263828119098e+03  4.0076382888896505e+03  4.0068292655597329e+03  4.0287727392783413e+03  4.0308443145622309e+03  4.0304838531271421e+03  4.0276460543090493e+03  4.0228299411874577e+03  4.0169388075378279e+03  4.0110121495878670e+03  4.0059354894105722e+03  4.0022333007658494e+03  4.0000051523148859e+03  3.9990034703839292e+03  3.9988014166596090e+03  3.9989774771186799e+03  3.9992512351890291e+03  3.9995337824219432e+03  3.9998926191258324e+03  4.0004610825872974e+03  4.0013369508347414e+03  4.0025113136399777e+03  4.0038511716394096e+03  4.0051358563528265e+03  4.0061273421613855e+03  4.0066445264048871e+03  4.0066139156117370e+03  4.0060814614158467e+03  4.0051866198222961e+03  4.0285877141201545e+03  4.0311456565200715e+03  4.0315089547407779e+03  4.0295909560947848e+03  4.0258015428988556e+03  4.0209246640832480e+03  4.0158779602011914e+03  4.0114512112788884e+03  4.0081197422564119e+03  4.0059871829273670e+03  4.0048549960037408e+03  4.0043706654660509e+03  4.0041875450825396e+03  4.0040783504149176e+03  4.0039722873827409e+03  4.0039194149586365e+03  4.0040121675665591e+03  4.0043047387217325e+03  4.0047647135642378e+03  4.0052727923502930e+03  4.0056644085517978e+03  4.0057905509123707e+03  4.0055700936855465e+03  4.0050131464137098e+03  4.0042098107131419e+03  4.0032937635548346e+03  4.0269910182005469e+03  4.0298472179158962e+03  4.0308287924076462e+03  4.0298159479835617e+03  4.0271153932696548e+03  4.0233587943128127e+03  4.0192995805105197e+03  4.0155922067457668e+03  4.0126368122799363e+03  4.0105348310366635e+03  4.0091507295249849e+03  4.0082357757505774e+03  4.0075551380270958e+03  4.0069702126329130e+03  4.0064549237009514e+03  4.0060548536514643e+03  4.0058196082871309e+03  4.0057448785511019e+03  4.0057509542751482e+03  4.0057046981479220e+03  4.0054713280754390e+03  4.0049696734876525e+03  4.0042049369003316e+03  4.0032654052846210e+03  4.0022872940920988e+03  4.0014058738373337e+03  4.0238477157407078e+03  4.0267617047419189e+03  4.0281993109786381e+03  4.0280222711848774e+03  4.0264278046711574e+03  4.0238696898863623e+03  4.0208999718792347e+03  4.0179999100715418e+03  4.0154661979610651e+03  4.0133861510392435e+03  4.0116933970752107e+03  4.0102642715392321e+03  4.0090059917961444e+03  4.0079003787516181e+03  4.0069924361597928e+03  4.0063392051018659e+03  4.0059504270240814e+03  4.0057533010966440e+03  4.0056000968310695e+03  4.0053161906404725e+03  4.0047667104950347e+03  4.0039110686955432e+03  4.0028203806555402e+03  4.0016503976820177e+03  4.0005833222244555e+03  3.9997651530304865e+03  4.0192123563623836e+03  4.0219341501400877e+03  4.0236499181847171e+03  4.0242229660550170e+03  4.0237429836442029e+03  4.0224695488601019e+03  4.0207238370671935e+03  4.0187796620812446e+03  4.0168000712287640e+03  4.0148387595966765e+03  4.0128927881450018e+03  4.0109710326420432e+03  4.0091400949392228e+03  4.0075245817989580e+03  4.0062628113152450e+03  4.0054408025416660e+03  4.0050377817417143e+03  4.0049116720406350e+03  4.0048355582329104e+03  4.0045733578539139e+03  4.0039646252267476e+03  4.0029829727702522e+03  4.0017432536725555e+03  4.0004551391797577e+03  3.9993443997154218e+03  3.9985762091660126e+03  4.0133609871970084e+03  4.0156755255930912e+03  4.0175138224993552e+03  4.0187634288219074e+03  4.0194162260712847e+03  4.0195323246674075e+03  4.0191835707881196e+03  4.0184094621342770e+03  4.0172102175287446e+03  4.0155800894404902e+03  4.0135611603545840e+03  4.0112858508198387e+03  4.0089806901495044e+03  4.0069217830441712e+03  4.0053551481468076e+03  4.0044125261258969e+03  4.0040579520241890e+03  4.0040902865196895e+03  4.0042056766903052e+03  4.0040996494168262e+03  4.0035711097905482e+03  4.0025880136692276e+03  4.0012893353593049e+03  3.9999245807027864e+03  3.9987583854706395e+03  3.9979808361779496e+03  4.0067784813035346e+03  4.0085409281903753e+03  4.0103925391797807e+03  4.0122665480808205e+03  4.0140730803670795e+03  4.0156799370985668e+03  4.0169060098793052e+03  4.0175422556704343e+03  4.0174033949874056e+03  4.0163966969024282e+03  4.0145811273042164e+03  4.0121882093807444e+03  4.0095873594349137e+03  4.0071990649964969e+03  4.0053806333505668e+03  4.0043224790554304e+03  4.0039923552811392e+03  4.0041500675067709e+03  4.0044307652720704e+03  4.0044694146232355e+03  4.0040223564593575e+03  4.0030416625624107e+03  4.0016760416677412e+03  4.0002017792244019e+03  3.9989154979025666e+03  3.9980339142800244e+03  4.0000981907462783e+03  4.0012521926605696e+03  4.0030595541027992e+03  4.0055152365953054e+03  4.0084679263325716e+03  4.0116133193587748e+03  4.0145319137149281e+03  4.0167700998798882e+03  4.0179477443014216e+03  4.0178628087132706e+03  4.0165593295827657e+03  4.0143324646085252e+03  4.0116622722208363e+03  4.0090909407837380e+03  4.0070782223288397e+03  4.0058793196983274e+03  4.0054844069184078e+03  4.0056402368635368e+03  4.0059474524460220e+03  4.0060009992671085e+03  4.0055250487242110e+03  4.0044553113919328e+03  4.0029416966250442e+03  4.0012758276300938e+03  3.9997773791866675e+03  3.9986868851610852e+03  3.9940024799990265e+03  3.9945785317844443e+03  3.9963235848717500e+03  3.9993015872473220e+03  4.0033219792558457e+03  4.0079409348195813e+03  4.0125348845053495e+03  4.0164317894207370e+03  4.0190666214771450e+03  4.0201181893825201e+03  4.0195876095759268e+03  4.0177938606093776e+03  4.0152851671819453e+03  4.0126898366957703e+03  4.0105489160313573e+03  4.0091794088330425e+03  4.0086082563314949e+03  4.0085958862225284e+03  4.0087399632693005e+03  4.0086237186963676e+03  4.0079580559678648e+03  4.0066691667423133e+03  4.0049043023595286e+03  4.0029603068583415e+03  4.0011690777062786e+03  3.9997878851434780e+03  3.9891032286950008e+03  3.9891998016151770e+03  3.9908819710628645e+03  3.9942794423943133e+03  3.9991840842858096e+03  4.0050550896069922e+03  4.0111174436983097e+03  4.0165293908601852e+03  4.0205730990186539e+03  4.0228159819357675e+03  4.0231988086472093e+03  4.0220274729586404e+03  4.0198721906876472e+03  4.0174036228636965e+03  4.0152128115866917e+03  4.0136657913930144e+03  4.0128329588714205e+03  4.0125105925050589e+03  4.0123236344936909e+03  4.0118733651876914e+03  4.0108794329958291e+03  4.0092687846610697e+03  4.0071846349547459e+03  4.0049195608437785e+03  4.0028053304867062e+03  4.0011055560792015e+03  3.9858287875883020e+03  3.9855830452520427e+03  3.9871975582552341e+03  3.9908546186164963e+03  3.9963475747562529e+03  4.0030868600169874e+03  4.0102117668141277e+03  4.0167777180235757e+03  4.0219661499983349e+03  4.0252593466091412e+03  4.0265347561296144e+03  4.0260572078659170e+03  4.0243758177277828e+03  4.0221577237957322e+03  4.0200066381774041e+03  4.0183164967868870e+03  4.0171987433803829e+03  4.0164992474382793e+03  4.0158937429715443e+03  4.0150268256279837e+03  4.0136466458337500e+03  4.0116906372679655e+03  4.0092968774261558e+03  4.0067443154691682e+03  4.0043515047173696e+03  4.0023762121040941e+03  3.9843457766859538e+03  3.9839023730657350e+03  3.9854276071309400e+03  3.9891360122759329e+03  3.9948372998744458e+03  4.0019413775276503e+03  4.0095723144706772e+03  4.0167587656749456e+03  4.0226460749895764e+03  4.0266720222509580e+03  4.0286620142306278e+03  4.0288241147686635e+03  4.0276520178335854e+03  4.0257677393433464e+03  4.0237498275346416e+03  4.0219941168387977e+03  4.0206425090184484e+03  4.0195942264481878e+03  4.0185892243865997e+03  4.0173320229858400e+03  4.0156128423880127e+03  4.0133859206202387e+03  4.0107820082832068e+03  4.0080573314139269e+03  4.0055046893426902e+03  4.0033638923445860e+03  3.9845381657118696e+03  3.9840236149284756e+03  3.9854212282349454e+03  3.9889545670905773e+03  3.9944596076499688e+03  4.0013879500338676e+03  4.0089136188160383e+03  4.0161119134469131e+03  4.0221582097656233e+03  4.0264925440003349e+03  4.0289096843566113e+03  4.0295576128965808e+03  4.0288525479398772e+03  4.0273395039812294e+03  4.0255393118916736e+03  4.0238236300363624e+03  4.0223490547043843e+03  4.0210629618744588e+03  4.0197722461568028e+03  4.0182477350445283e+03  4.0163273980026179e+03  4.0139840451456962e+03  4.0113376521411883e+03  4.0086137334807099e+03  4.0060689271713632e+03  4.0039149305893361e+03  3.9860515532847376e+03  3.9855587235014727e+03  3.9867843384465864e+03  3.9899395710978961e+03  3.9948915340417020e+03  4.0011646711763501e+03  4.0080336817486354e+03  4.0146797854279957e+03  4.0203643663404259e+03  4.0245728629082405e+03  4.0270944591931284e+03  4.0280234525331412e+03  4.0276896054829172e+03  4.0265421115513091e+03  4.0250214653049984e+03  4.0234538111716251e+03  4.0219936133866399e+03  4.0206252281104239e+03  4.0192163415321970e+03  4.0176012311437707e+03  4.0156639619375865e+03  4.0133936772210550e+03  4.0108956943186099e+03  4.0083591332833221e+03  4.0059976632118237e+03  4.0039881514312642e+03  </DataArray> 
</PointData> 
</Piece>
</UnstructuredGrid>
</VTKFile>