<?xml version="1.0"?>
<VTKFile type="UnstructuredGrid"  version="0.1"  >
<UnstructuredGrid>
<Piece  NumberOfPoints="676" NumberOfCells="1250">
<Points>
<DataArray  type="Float64"  NumberOfComponents="3"  format="ascii">0 0 0  0.04 0 0  0.08 0 0  0.12 0 0  0.16 0 0  0.2 0 0  0.24 0 0  0.28 0 0  0.32 0 0  0.36 0 0  0.4 0 0  0.44 0 0  0.48 0 0  0.52 0 0  0.5600000000000001 0 0  0.6 0 0  0.64 0 0  0.68 0 0  0.72 0 0  0.76 0 0  0.8 0 0  0.84 0 0  0.88 0 0  0.92 0 0  0.96 0 0  1 0 0  0 0.04 0  0.04 0.04 0  0.08 0.04 0  0.12 0.04 0  0.16 0.04 0  0.2 0.04 0  0.24 0.04 0  0.28 0.04 0  0.32 0.04 0  0.36 0.04 0  0.4 0.04 0  0.44 0.04 0  0.48 0.04 0  0.52 0.04 0  0.5600000000000001 0.04 0  0.6 0.04 0  0.64 0.04 0  0.68 0.04 0  0.72 0.04 0  0.76 0.04 0  0.8 0.04 0  0.84 0.04 0  0.88 0.04 0  0.92 0.04 0  0.96 0.04 0  1 0.04 0  0 0.08 0  0.04 0.08 0  0.08 0.08 0  0.12 0.08 0  0.16 0.08 0  0.2 0.08 0  0.24 0.08 0  0.28 0.08 0  0.32 0.08 0  0.36 0.08 0  0.4 0.08 0  0.44 0.08 0  0.48 0.08 0  0.52 0.08 0  0.5600000000000001 0.08 0  0.6 0.08 0  0.64 0.08 0  0.68 0.08 0  0.72 0.08 0  0.76 0.08 0  0.8 0.08 0  0.84 0.08 0  0.88 0.08 0  0.92 0.08 0  0.96 0.08 0  1 0.08 0  0 0.12 0  0.04 0.12 0  0.08 0.12 0  0.12 0.12 0  0.16 0.12 0  0.2 0.12 0  0.24 0.12 0  0.28 0.12 0  0.32 0.12 0  0.36 0.12 0  0.4 0.12 0  0.44 0.12 0  0.48 0.12 0  0.52 0.12 0  0.5600000000000001 0.12 0  0.6 0.12 0  0.64 0.12 0  0.68 0.12 0  0.72 0.12 0  0.76 0.12 0  0.8 0.12 0  0.84 0.12 0  0.88 0.12 0  0.92 0.12 0  0.96 0.12 0  1 0.12 0  0 0.16 0  0.04 0.16 0  0.08 0.16 0  0.12 0.16 0  0.16 0.16 0  0.2 0.16 0  0.24 0.16 0  0.28 0.16 0  0.32 0.16 0  0.36 0.16 0  0.4 0.16 0  0.44 0.16 0  0.48 0.16 0  0.52 0.16 0  0.5600000000000001 0.16 0  0.6 0.16 0  0.64 0.16 0  0.68 0.16 0  0.72 0.16 0  0.76 0.16 0  0.8 0.16 0  0.84 0.16 0  0.88 0.16 0  0.92 0.16 0  0.96 0.16 0  1 0.16 0  0 0.2 0  0.04 0.2 0  0.08 0.2 0  0.12 0.2 0  0.16 0.2 0  0.2 0.2 0  0.24 0.2 0  0.28 0.2 0  0.32 0.2 0  0.36 0.2 0  0.4 0.2 0  0.44 0.2 0  0.48 0.2 0  0.52 0.2 0  0.5600000000000001 0.2 0  0.6 0.2 0  0.64 0.2 0  0.68 0.2 0  0.72 0.2 0  0.76 0.2 0  0.8 0.2 0  0.84 0.2 0  0.88 0.2 0  0.92 0.2 0  0.96 0.2 0  1 0.2 0  0 0.24 0  0.04 0.24 0  0.08 0.24 0  0.12 0.24 0  0.16 0.24 0  0.2 0.24 0  0.24 0.24 0  0.28 0.24 0  0.32 0.24 0  0.36 0.24 0  0.4 0.24 0  0.44 0.24 0  0.48 0.24 0  0.52 0.24 0  0.5600000000000001 0.24 0  0.6 0.24 0  0.64 0.24 0  0.68 0.24 0  0.72 0.24 0  0.76 0.24 0  0.8 0.24 0  0.84 0.24 0  0.88 0.24 0  0.92 0.24 0  0.96 0.24 0  1 0.24 0  0 0.28 0  0.04 0.28 0  0.08 0.28 0  0.12 0.28 0  0.16 0.28 0  0.2 0.28 0  0.24 0.28 0  0.28 0.28 0  0.32 0.28 0  0.36 0.28 0  0.4 0.28 0  0.44 0.28 0  0.48 0.28 0  0.52 0.28 0  0.5600000000000001 0.28 0  0.6 0.28 0  0.64 0.28 0  0.68 0.28 0  0.72 0.28 0  0.76 0.28 0  0.8 0.28 0  0.84 0.28 0  0.88 0.28 0  0.92 0.28 0  0.96 0.28 0  1 0.28 0  0 0.32 0  0.04 0.32 0  0.08 0.32 0  0.12 0.32 0  0.16 0.32 0  0.2 0.32 0  0.24 0.32 0  0.28 0.32 0  0.32 0.32 0  0.36 0.32 0  0.4 0.32 0  0.44 0.32 0  0.48 0.32 0  0.52 0.32 0  0.5600000000000001 0.32 0  0.6 0.32 0  0.64 0.32 0  0.68 0.32 0  0.72 0.32 0  0.76 0.32 0  0.8 0.32 0  0.84 0.32 0  0.88 0.32 0  0.92 0.32 0  0.96 0.32 0  1 0.32 0  0 0.36 0  0.04 0.36 0  0.08 0.36 0  0.12 0.36 0  0.16 0.36 0  0.2 0.36 0  0.24 0.36 0  0.28 0.36 0  0.32 0.36 0  0.36 0.36 0  0.4 0.36 0  0.44 0.36 0  0.48 0.36 0  0.52 0.36 0  0.5600000000000001 0.36 0  0.6 0.36 0  0.64 0.36 0  0.68 0.36 0  0.72 0.36 0  0.76 0.36 0  0.8 0.36 0  0.84 0.36 0  0.88 0.36 0  0.92 0.36 0  0.96 0.36 0  1 0.36 0  0 0.4 0  0.04 0.4 0  0.08 0.4 0  0.12 0.4 0  0.16 0.4 0  0.2 0.4 0  0.24 0.4 0  0.28 0.4 0  0.32 0.4 0  0.36 0.4 0  0.4 0.4 0  0.44 0.4 0  0.48 0.4 0  0.52 0.4 0  0.5600000000000001 0.4 0  0.6 0.4 0  0.64 0.4 0  0.68 0.4 0  0.72 0.4 0  0.76 0.4 0  0.8 0.4 0  0.84 0.4 0  0.88 0.4 0  0.92 0.4 0  0.96 0.4 0  1 0.4 0  0 0.44 0  0.04 0.44 0  0.08 0.44 0  0.12 0.44 0  0.16 0.44 0  0.2 0.44 0  0.24 0.44 0  0.28 0.44 0  0.32 0.44 0  0.36 0.44 0  0.4 0.44 0  0.44 0.44 0  0.48 0.44 0  0.52 0.44 0  0.5600000000000001 0.44 0  0.6 0.44 0  0.64 0.44 0  0.68 0.44 0  0.72 0.44 0  0.76 0.44 0  0.8 0.44 0  0.84 0.44 0  0.88 0.44 0  0.92 0.44 0  0.96 0.44 0  1 0.44 0  0 0.48 0  0.04 0.48 0  0.08 0.48 0  0.12 0.48 0  0.16 0.48 0  0.2 0.48 0  0.24 0.48 0  0.28 0.48 0  0.32 0.48 0  0.36 0.48 0  0.4 0.48 0  0.44 0.48 0  0.48 0.48 0  0.52 0.48 0  0.5600000000000001 0.48 0  0.6 0.48 0  0.64 0.48 0  0.68 0.48 0  0.72 0.48 0  0.76 0.48 0  0.8 0.48 0  0.84 0.48 0  0.88 0.48 0  0.92 0.48 0  0.96 0.48 0  1 0.48 0  0 0.52 0  0.04 0.52 0  0.08 0.52 0  0.12 0.52 0  0.16 0.52 0  0.2 0.52 0  0.24 0.52 0  0.28 0.52 0  0.32 0.52 0  0.36 0.52 0  0.4 0.52 0  0.44 0.52 0  0.48 0.52 0  0.52 0.52 0  0.5600000000000001 0.52 0  0.6 0.52 0  0.64 0.52 0  0.68 0.52 0  0.72 0.52 0  0.76 0.52 0  0.8 0.52 0  0.84 0.52 0  0.88 0.52 0  0.92 0.52 0  0.96 0.52 0  1 0.52 0  0 0.5600000000000001 0  0.04 0.5600000000000001 0  0.08 0.5600000000000001 0  0.12 0.5600000000000001 0  0.16 0.5600000000000001 0  0.2 0.5600000000000001 0  0.24 0.5600000000000001 0  0.28 0.5600000000000001 0  0.32 0.5600000000000001 0  0.36 0.5600000000000001 0  0.4 0.5600000000000001 0  0.44 0.5600000000000001 0  0.48 0.5600000000000001 0  0.52 0.5600000000000001 0  0.5600000000000001 0.5600000000000001 0  0.6 0.5600000000000001 0  0.64 0.5600000000000001 0  0.68 0.5600000000000001 0  0.72 0.5600000000000001 0  0.76 0.5600000000000001 0  0.8 0.5600000000000001 0  0.84 0.5600000000000001 0  0.88 0.5600000000000001 0  0.92 0.5600000000000001 0  0.96 0.5600000000000001 0  1 0.5600000000000001 0  0 0.6 0  0.04 0.6 0  0.08 0.6 0  0.12 0.6 0  0.16 0.6 0  0.2 0.6 0  0.24 0.6 0  0.28 0.6 0  0.32 0.6 0  0.36 0.6 0  0.4 0.6 0  0.44 0.6 0  0.48 0.6 0  0.52 0.6 0  0.5600000000000001 0.6 0  0.6 0.6 0  0.64 0.6 0  0.68 0.6 0  0.72 0.6 0  0.76 0.6 0  0.8 0.6 0  0.84 0.6 0  0.88 0.6 0  0.92 0.6 0  0.96 0.6 0  1 0.6 0  0 0.64 0  0.04 0.64 0  0.08 0.64 0  0.12 0.64 0  0.16 0.64 0  0.2 0.64 0  0.24 0.64 0  0.28 0.64 0  0.32 0.64 0  0.36 0.64 0  0.4 0.64 0  0.44 0.64 0  0.48 0.64 0  0.52 0.64 0  0.5600000000000001 0.64 0  0.6 0.64 0  0.64 0.64 0  0.68 0.64 0  0.72 0.64 0  0.76 0.64 0  0.8 0.64 0  0.84 0.64 0  0.88 0.64 0  0.92 0.64 0  0.96 0.64 0  1 0.64 0  0 0.68 0  0.04 0.68 0  0.08 0.68 0  0.12 0.68 0  0.16 0.68 0  0.2 0.68 0  0.24 0.68 0  0.28 0.68 0  0.32 0.68 0  0.36 0.68 0  0.4 0.68 0  0.44 0.68 0  0.48 0.68 0  0.52 0.68 0  0.5600000000000001 0.68 0  0.6 0.68 0  0.64 0.68 0  0.68 0.68 0  0.72 0.68 0  0.76 0.68 0  0.8 0.68 0  0.84 0.68 0  0.88 0.68 0  0.92 0.68 0  0.96 0.68 0  1 0.68 0  0 0.72 0  0.04 0.72 0  0.08 0.72 0  0.12 0.72 0  0.16 0.72 0  0.2 0.72 0  0.24 0.72 0  0.28 0.72 0  0.32 0.72 0  0.36 0.72 0  0.4 0.72 0  0.44 0.72 0  0.48 0.72 0  0.52 0.72 0  0.5600000000000001 0.72 0  0.6 0.72 0  0.64 0.72 0  0.68 0.72 0  0.72 0.72 0  0.76 0.72 0  0.8 0.72 0  0.84 0.72 0  0.88 0.72 0  0.92 0.72 0  0.96 0.72 0  1 0.72 0  0 0.76 0  0.04 0.76 0  0.08 0.76 0  0.12 0.76 0  0.16 0.76 0  0.2 0.76 0  0.24 0.76 0  0.28 0.76 0  0.32 0.76 0  0.36 0.76 0  0.4 0.76 0  0.44 0.76 0  0.48 0.76 0  0.52 0.76 0  0.5600000000000001 0.76 0  0.6 0.76 0  0.64 0.76 0  0.68 0.76 0  0.72 0.76 0  0.76 0.76 0  0.8 0.76 0  0.84 0.76 0  0.88 0.76 0  0.92 0.76 0  0.96 0.76 0  1 0.76 0  0 0.8 0  0.04 0.8 0  0.08 0.8 0  0.12 0.8 0  0.16 0.8 0  0.2 0.8 0  0.24 0.8 0  0.28 0.8 0  0.32 0.8 0  0.36 0.8 0  0.4 0.8 0  0.44 0.8 0  0.48 0.8 0  0.52 0.8 0  0.5600000000000001 0.8 0  0.6 0.8 0  0.64 0.8 0  0.68 0.8 0  0.72 0.8 0  0.76 0.8 0  0.8 0.8 0  0.84 0.8 0  0.88 0.8 0  0.92 0.8 0  0.96 0.8 0  1 0.8 0  0 0.84 0  0.04 0.84 0  0.08 0.84 0  0.12 0.84 0  0.16 0.84 0  0.2 0.84 0  0.24 0.84 0  0.28 0.84 0  0.32 0.84 0  0.36 0.84 0  0.4 0.84 0  0.44 0.84 0  0.48 0.84 0  0.52 0.84 0  0.5600000000000001 0.84 0  0.6 0.84 0  0.64 0.84 0  0.68 0.84 0  0.72 0.84 0  0.76 0.84 0  0.8 0.84 0  0.84 0.84 0  0.88 0.84 0  0.92 0.84 0  0.96 0.84 0  1 0.84 0  0 0.88 0  0.04 0.88 0  0.08 0.88 0  0.12 0.88 0  0.16 0.88 0  0.2 0.88 0  0.24 0.88 0  0.28 0.88 0  0.32 0.88 0  0.36 0.88 0  0.4 0.88 0  0.44 0.88 0  0.48 0.88 0  0.52 0.88 0  0.5600000000000001 0.88 0  0.6 0.88 0  0.64 0.88 0  0.68 0.88 0  0.72 0.88 0  0.76 0.88 0  0.8 0.88 0  0.84 0.88 0  0.88 0.88 0  0.92 0.88 0  0.96 0.88 0  1 0.88 0  0 0.92 0  0.04 0.92 0  0.08 0.92 0  0.12 0.92 0  0.16 0.92 0  0.2 0.92 0  0.24 0.92 0  0.28 0.92 0  0.32 0.92 0  0.36 0.92 0  0.4 0.92 0  0.44 0.92 0  0.48 0.92 0  0.52 0.92 0  0.5600000000000001 0.92 0  0.6 0.92 0  0.64 0.92 0  0.68 0.92 0  0.72 0.92 0  0.76 0.92 0  0.8 0.92 0  0.84 0.92 0  0.88 0.92 0  0.92 0.92 0  0.96 0.92 0  1 0.92 0  0 0.96 0  0.04 0.96 0  0.08 0.96 0  0.12 0.96 0  0.16 0.96 0  0.2 0.96 0  0.24 0.96 0  0.28 0.96 0  0.32 0.96 0  0.36 0.96 0  0.4 0.96 0  0.44 0.96 0  0.48 0.96 0  0.52 0.96 0  0.5600000000000001 0.96 0  0.6 0.96 0  0.64 0.96 0  0.68 0.96 0  0.72 0.96 0  0.76 0.96 0  0.8 0.96 0  0.84 0.96 0  0.88 0.96 0  0.92 0.96 0  0.96 0.96 0  1 0.96 0  0 1 0  0.04 1 0  0.08 1 0  0.12 1 0  0.16 1 0  0.2 1 0  0.24 1 0  0.28 1 0  0.32 1 0  0.36 1 0  0.4 1 0  0.44 1 0  0.48 1 0  0.52 1 0  0.5600000000000001 1 0  0.6 1 0  0.64 1 0  0.68 1 0  0.72 1 0  0.76 1 0  0.8 1 0  0.84 1 0  0.88 1 0  0.92 1 0  0.96 1 0  1 1 0  </DataArray>
</Points>
<Cells>
[...]
<PointData  Scalars="gamma"> 
<DataArray  type="Float64"  Name="gamma"  format="ascii">3.9897152367592321e+03  3.9891801375217410e+03  3.9897543719019163e+03  3.9915168264433669e+03  3.9942772721257811e+03  3.9975865198745037e+03  4.0008224609518443e+03  4.0033301365205139e+03  4.0045771766448925e+03  4.0042820301560541e+03  4.0024809868810885e+03  3.9995173760129737e+03  3.9959572997425457e+03  3.9924553233529336e+03  3.9896058633403632e+03  3.9878184976418711e+03  3.9872475601352990e+03  3.9877904391666325e+03  3.9891494228680599e+03  3.9909342791538475e+03  3.9927723641803409e+03  3.9943934656432607e+03  3.9956679498253261e+03  3.9965950087815709e+03  3.9972556145429353e+03  3.9977548175820511e+03  3.9897674009681441e+03  3.9894478607295200e+03  3.9903631449597069e+03  3.9925968613419241e+03  3.9959380805761830e+03  3.9998894958479832e+03  4.0037591224593684e+03  4.0068134417855913e+03  4.0084503959477929e+03  4.0083446594281340e+03  4.0065256923205266e+03  4.0033679501603337e+03  3.9994967232705935e+03  3.9956358219857680e+03  3.9924385225386313e+03  3.9903466726937622e+03  3.9895137330395810e+03  3.9898084301391391e+03  3.9908920223683504e+03  3.9923407983506336e+03  3.9937730752039174e+03  3.9949412148830143e+03  3.9957642354971313e+03  3.9963000710494753e+03  3.9966787975496072e+03  3.9970295910401032e+03  3.9909979735916841e+03  3.9910027575880849e+03  3.9922768029673957e+03  3.9949053584284998e+03  3.9986775343065683e+03  4.0030892116125015e+03  4.0074308149585654e+03  4.0109405663636508e+03  4.0129825767959792e+03  4.0132005987287034e+03  4.0116043513602294e+03  4.0085638941340158e+03  4.0047132642115630e+03  4.0007902026213869e+03  3.9974567677819477e+03  3.9951505539376321e+03  3.9940065361537822e+03  3.9938679926630466e+03  3.9943777163212521e+03  3.9951159932223068e+03  3.9957378169066242e+03  3.9960642176083970e+03  3.9961016652080284e+03  3.9959923941488642e+03  3.9959249992869768e+03  3.9960468168172811e+03  3.9933324307867897e+03  3.9937116872646361e+03  3.9952843017113564e+03  3.9981376730098245e+03  4.0020892294740702e+03  4.0066798556249728e+03  4.0112461773997152e+03  4.0150584623446589e+03  4.0174890115314829e+03  4.0181643459181842e+03  4.0170568856582013e+03  4.0144879022119858e+03  4.0110389920317102e+03  4.0073966486645140e+03  4.0041750456270042e+03  4.0017690622815585e+03  4.0002803164982906e+03  3.9995359926729561e+03  3.9991903382988608e+03  3.9988712417130200e+03  3.9983190275584102e+03  3.9974683678125698e+03  3.9964472749685779e+03  3.9955011300298138e+03  3.9948798094806598e+03  3.9947380220998893e+03  3.9964378802227302e+03  3.9971531520305334e+03  3.9988744734581073e+03  4.0016974282005872e+03  4.0055007348589756e+03  4.0099251943933659e+03  4.0144184947219874e+03  4.0183422523528379e+03  4.0211162487517477e+03  4.0223596857270954e+03  4.0219862646923966e+03  4.0202212676266531e+03  4.0175320104006278e+03  4.0144908474104427e+03  4.0116127679678330e+03  4.0092192084475191e+03  4.0073720711896317e+03  4.0058988984779385e+03  4.0044987057769636e+03  4.0028885794602888e+03  4.0009349604835975e+03  3.9987185455508320e+03  3.9965082481493150e+03  3.9946578671319289e+03  3.9934718706113463e+03  3.9930978862091702e+03  3.9998079652345832e+03  4.0007258060348959e+03  4.0023690355015219e+03  4.0048535073094890e+03  4.0081526787855664e+03  4.0120567056612863e+03  4.0161790299201639e+03  4.0200195673246089e+03  4.0230733758724168e+03  4.0249544135617730e+03  4.0254940211124863e+03  4.0247785010470839e+03  4.0231093407447879e+03  4.0208968356445162e+03  4.0185228921675171e+03  4.0162217506353395e+03  4.0140226676260522e+03  4.0117769621964208e+03  4.0092601432773913e+03  4.0063093221445151e+03  4.0029391977300970e+03  3.9993856057126168e+03  3.9960543959940965e+03  3.9933943907303046e+03  3.9917474321904974e+03  3.9912384501338711e+03  4.0029094984769881e+03  4.0038247900656716e+03  4.0051244487053750e+03  4.0069613095851100e+03  4.0094326589691686e+03  4.0125142834437929e+03  4.0160208121151013e+03  4.0196165339169543e+03  4.0228820771851215e+03  4.0254183047894735e+03  4.0269506731654351e+03  4.0273940244681885e+03  4.0268517136835594e+03  4.0255488372982231e+03  4.0237264950628914e+03  4.0215410936707021e+03  4.0190122283592773e+03  4.0160439425907857e+03  4.0125135219457047e+03  4.0083910616497742e+03  4.0038352475069437e+03  3.9992160753934722e+03  3.9950444466254025e+03  3.9918304452443290e+03  3.9899266936515796e+03  3.9894219800427863e+03  4.0053383975869624e+03  4.0060226909181920e+03  4.0067299799988664e+03  4.0076681836985908e+03  4.0090787091999005e+03  4.0111410978022482e+03  4.0138826919295348e+03  4.0171339426648979e+03  4.0205523379977767e+03  4.0237085502119580e+03  4.0262014473415938e+03  4.0277565865214156e+03  4.0282708576898640e+03  4.0277901177023709e+03  4.0264361221427098e+03  4.0243210220760839e+03  4.0214926925800414e+03  4.0179397269907786e+03  4.0136564776118571e+03  4.0087376701638650e+03  4.0034528860102037e+03  3.9982544333215274e+03  3.9936994307000205e+03  3.9903074774781849e+03  3.9884091686203938e+03  3.9880491171063900e+03  4.0069304024173321e+03  4.0071910115071478e+03  4.0071306241212260e+03  4.0070275361516792e+03  4.0072757703815892e+03  4.0082574074477329e+03  4.0102009028279085e+03  4.0130827828734546e+03  4.0166130016243433e+03  4.0203090588630885e+03  4.0236279291892320e+03  4.0261039170451331e+03  4.0274425852083477e+03  4.0275433790644670e+03  4.0264556751939922e+03  4.0243006197266877e+03  4.0212027483136380e+03  4.0172664704410513e+03  4.0126071305569085e+03  4.0074157245805977e+03  4.0020147886416530e+03  3.9968621600818133e+03  3.9924820757648026e+03  3.9893399951617503e+03  3.9877098338774285e+03  3.9875915082322904e+03  4.0077919414443118e+03  4.0075232017883518e+03  4.0066341678374647e+03  4.0054821080251068e+03  4.0046095917806956e+03  4.0045834427869881e+03  4.0058042137191878e+03  4.0083598228162127e+03  4.0119796702316567e+03  4.0161043331106998e+03  4.0200409222443595e+03  4.0231445742328215e+03  4.0249627562022347e+03  4.0253000646901278e+03  4.0241964046400535e+03  4.0218455358259862e+03  4.0185002307029476e+03  4.0144078497181122e+03  4.0097984211737939e+03  4.0049167799659172e+03  4.0000653815563333e+03  3.9956175329167049e+03  3.9919764219250605e+03  3.9894863680041844e+03  3.9883326452281044e+03  3.9884776609126861e+03  4.0082473425516050e+03  4.0074580473729534e+03  4.0058057757792103e+03  4.0037263036823938e+03  4.0018958458928382e+03  4.0010374903379729e+03  4.0016864139499426e+03  4.0040026845630123e+03  4.0077023113723303e+03  4.0121299530530596e+03  4.0164430854598991e+03  4.0198395702405664e+03  4.0217512629233611e+03  4.0219461476100746e+03  4.0205202631357570e+03  4.0178019373319053e+03  4.0142184925661245e+03  4.0101802234602455e+03  4.0060186289133148e+03  4.0019851876652915e+03  3.9982877290743536e+03  3.9951268437372414e+03  3.9927010742776456e+03  3.9911727383200491e+03  3.9906129929648641e+03  3.9909596769280211e+03  4.0087265380370422e+03  4.0075357016001235e+03  4.0052914742414550e+03  4.0024984799141639e+03  3.9999446835250628e+03  3.9984778176152658e+03  3.9987316721993907e+03  4.0009049241004845e+03  4.0046759161411851e+03  4.0092837376557868e+03  4.0137442481778762e+03  4.0171240284181245e+03  4.0187807437037218e+03  4.0184973521767138e+03  4.0164802777793984e+03  4.0132405080217586e+03  4.0094130277540621e+03  4.0055819566083601e+03  4.0021648504131017e+03  3.9993785514241199e+03  3.9972749017798888e+03  3.9958112722159008e+03  3.9949162464170649e+03  3.9945242963848045e+03  3.9945759878077802e+03  3.9949995160023177e+03  4.0096327764116450e+03  4.0082361183729631e+03  4.0056303814026660e+03  4.0023722476064845e+03  3.9993375272510407e+03  3.9974712311438343e+03  3.9974798142506629e+03  3.9995809213314628e+03  4.0034056506125976e+03  4.0080899106769593e+03  4.0125221663459738e+03  4.0156618298388416e+03  4.0168230649952889e+03  4.0158368737478158e+03  4.0130509485539624e+03  4.0091832300975984e+03  4.0050903653550031e+03  4.0015314690158662e+03  3.9989975079215301e+03  3.9976451521605404e+03  3.9973350508841800e+03  3.9977421761945593e+03  3.9984896609070911e+03  3.9992603067940363e+03  3.9998576825017290e+03  4.0002125119736161e+03  4.0112299667471557e+03  4.0098481476810616e+03  4.0071115487804091e+03  4.0036085606546926e+03  4.0002817902152037e+03  3.9981559852086871e+03  3.9979998590865703e+03  4.0000488018884898e+03  4.0038945428823049e+03  4.0085846043089355e+03  4.0128981160411995e+03  4.0157045294955446e+03  4.0162873651909163e+03  4.0145321309774054e+03  4.0109276226583611e+03  4.0063933756280685e+03  4.0019996644799630e+03  3.9986726359509062e+03  3.9969708678652237e+03  3.9969880551265815e+03  3.9983934063619645e+03  4.0005807041805301e+03  4.0028694371066417e+03  4.0046930772273608e+03  4.0057216090169422e+03  4.0058931608769262e+03  4.0135774454342504e+03  4.0124015517336979e+03  4.0097106136144762e+03  4.0061048312591925e+03  4.0025789272445331e+03  4.0002321841267226e+03  3.9999019908355599e+03  4.0018587383581307e+03  4.0056791137188361e+03  4.0103475924489803e+03  4.0145533548676494e+03  4.0170832658293057e+03  4.0171822089012271e+03  4.0147673628449061e+03  4.0104355020159683e+03  4.0052719403043470e+03  4.0005309014146142e+03  3.9972899041190026e+03  3.9961783836488039e+03  3.9972496678165462e+03  4.0000191215059767e+03  4.0036436677206316e+03  4.0071802759059433e+03  4.0098422203046712e+03  4.0111778731389340e+03  4.0111272574969253e+03  4.0165223909978117e+03  4.0156716547159067e+03  4.0131138249730357e+03  4.0094448167496703e+03  4.0057044070912966e+03  4.0030724156220294e+03  4.0024749894504384e+03  4.0042489278579615e+03  4.0079922219163127e+03  4.0126586417752042e+03  4.0168661921896314e+03  4.0193167054345176e+03  4.0191895025365507e+03  4.0163847400416739e+03  4.0115453840265359e+03  4.0058605656519208e+03  4.0007205627741373e+03  3.9973326731098555e+03  3.9964091374202526e+03  3.9980085358441324e+03  4.0015639433082906e+03  4.0060783964852421e+03  4.0104226384582357e+03  4.0136425054586762e+03  4.0151834175291319e+03  4.0149708269935145e+03  4.0197431433120760e+03  4.0192451502234035e+03  4.0168117682864495e+03  4.0130242001087345e+03  4.0089664582636215e+03  4.0059114768738441e+03  4.0049009131767220e+03  4.0063756942948212e+03  4.0099965660519706e+03  4.0147215521900921e+03  4.0191149016510703e+03  4.0217844267794594e+03  4.0218048848005151e+03  4.0189940960954359e+03  4.0139606748482452e+03  4.0079181443440280e+03  4.0023324653762043e+03  3.9985147544873139e+03  3.9972775891738565e+03  3.9987460003030733e+03  4.0023658231867912e+03  4.0070963658537548e+03  4.0117234996562120e+03  4.0151953260500927e+03  4.0168775851103446e+03  4.0166562341004387e+03  4.0228250101081753e+03  4.0226214926927910e+03  4.0202289415048676e+03  4.0162090839134739e+03  4.0116918588979770e+03  4.0080552640246665e+03  4.0064804413927673e+03  4.0075466883267463e+03  4.0110160638636198e+03  4.0158841413262053e+03  4.0206782196562281e+03  4.0239026835494424e+03  4.0244873945258760e+03  4.0220994756384976e+03  4.0172278079414609e+03  4.0110250405942452e+03  4.0049670272038770e+03  4.0004393663742399e+03  3.9983725088650067e+03  3.9990231957337332e+03  4.0019529198787368e+03  4.0061976893910046e+03  4.0105702111352621e+03  4.0139982049372634e+03  4.0157936670679223e+03  4.0157749968182361e+03  4.0253460333754906e+03  4.0253199870126350e+03  4.0228513006640378e+03  4.0184814192432359e+03  4.0133852453281379e+03  4.0090489869128096e+03  4.0068045882764536e+03  4.0073907746609721e+03  4.0106991176311071e+03  4.0157910060391741e+03  4.0211749811598929e+03  4.0252498659681064e+03  4.0267715078736082e+03  4.0252003349432425e+03  4.0208307862471338e+03  4.0146761856188077e+03  4.0081583625912126e+03  4.0027050085220067e+03  3.9993748893741827e+03  3.9986120467366964e+03  4.0001860956237410e+03  4.0033208800480415e+03  4.0069611429267179e+03  4.0100888306376673e+03  4.0119891625200853e+03  4.0123888065323554e+03  4.0269532242656542e+03  4.0269675980034967e+03  4.0243212660283843e+03  4.0195357879120384e+03  4.0138222617063429e+03  4.0087623672856957e+03  4.0058295268493466e+03  4.0059222875985074e+03  4.0090741343166055e+03  4.0144335195908589e+03  4.0205122917360882e+03  4.0256161448341659e+03  4.0283204943620749e+03  4.0278494816343550e+03  4.0242532257917028e+03  4.0183456323654777e+03  4.0114389872004408e+03  4.0049675759595948e+03  4.0001147626593370e+03  3.9975445449688427e+03  3.9972992532274257e+03  3.9988739019245259e+03  4.0014281245164461e+03  4.0040603010468926e+03  4.0060555615331209e+03  4.0070355195006355e+03  4.0274171925922888e+03  4.0273532031591053e+03  4.0244843610452867e+03  4.0193111396459881e+03  4.0130607771395339e+03  4.0073779061599721e+03  4.0038435414221040e+03  4.0034923448889608e+03  4.0064939702618981e+03  4.0120975826784629e+03  4.0188460970787996e+03  4.0249837176900201e+03  4.0289290921169290e+03  4.0296762360445578e+03  4.0270157214084147e+03  4.0215286489113851e+03  4.0143755994750077e+03  4.0069590446207344e+03  4.0005640358917808e+03  3.9960745499403165e+03  3.9938295475299615e+03  3.9936371619640522e+03  3.9949207875374850e+03  3.9969378729283731e+03  3.9989987388644795e+03  4.0006224133050696e+03  4.0266609626587197e+03  4.0264455549461436e+03  4.0233876092087316e+03  4.0179618794184457e+03  4.0113799895757779e+03  4.0052980817625835e+03  4.0013478986523328e+03  4.0006540439071687e+03  4.0034996092203364e+03  4.0092410070081478e+03  4.0164856960267912e+03  4.0234673401111791e+03  4.0285024013736565e+03  4.0303986831340881e+03  4.0287097196866671e+03  4.0237806375521373e+03  4.0165943984166756e+03  4.0084815759864491e+03  4.0007857683450356e+03  3.9945750226733962e+03  3.9904632178375682e+03  3.9885665808993444e+03  3.9885820876743605e+03  3.9899458394449171e+03  3.9920160722725523e+03  3.9942288883810879e+03  4.0247638864536871e+03  4.0243802983748351e+03  4.0212414704449757e+03  4.0157881883820164e+03  4.0091762768155841e+03  4.0030090567990551e+03  3.9988964175654614e+03  3.9979908860810524e+03  4.0006536167631730e+03  4.0063487411704550e+03  4.0137850301408371e+03  4.0212506310459644e+03  4.0270386362542795e+03  4.0298458494470265e+03  4.0290442948497557e+03  4.0247680734903561e+03  4.0178134802604936e+03  4.0094002369379282e+03  4.0008712815651375e+03  3.9934116025235312e+03  3.9878472175996112e+03  3.9845542326767149e+03  3.9834763864167298e+03  3.9842255546637898e+03  3.9862267589810249e+03  3.9888672986005854e+03  4.0219432120858296e+03  4.0214243999467612e+03  4.0183617138136478e+03  4.0131516393724737e+03  4.0068519735038217e+03  4.0009461295312617e+03  3.9969454230227457e+03  3.9959627188612953e+03  3.9983957493869193e+03  4.0038119543761904e+03  4.0110568045664281e+03  4.0185422201265797e+03  4.0246278618594388e+03  4.0279922515766593e+03  4.0279027792249390e+03  4.0243283483118566e+03  4.0178848727660297e+03  4.0096476385602550e+03  4.0008927059617999e+03  3.9928358738572288e+03  3.9864248021251628e+03  3.9822163397960062e+03  3.9803465782256944e+03  3.9805819898571949e+03  3.9824280065224402e+03  3.9852654484100331e+03  4.0185160220054627e+03  4.0179258958913128e+03  4.0151061439985774e+03  4.0103991795090910e+03  4.0047282952621276e+03  3.9993988708459578e+03  3.9957559346424778e+03  3.9948111017660858e+03  3.9969583426991649e+03  4.0018601882832800e+03  4.0085270284127650e+03  4.0155560832119095e+03  4.0214582831177249e+03  4.0249863326968480e+03  4.0253854713341707e+03  4.0225155357601884e+03  4.0168304030065319e+03  4.0092374042357728e+03  4.0008842988981992e+03  3.9929293705188443e+03  3.9863425815033811e+03  3.9817691241778134e+03  3.9794687423319169e+03  3.9793295867365496e+03  3.9809446915165167e+03  3.9837307730861680e+03  4.0148458044298445e+03  4.0142561337645902e+03  4.0118168714163521e+03  4.0078098658893646e+03  4.0030000466225274e+03  3.9984756631972277e+03  3.9953680355505262e+03  3.9945419384369056e+03  3.9963547240431412e+03  4.0005529480871137e+03  4.0063278019249697e+03  4.0125046513186667e+03  4.0178099927621465e+03  4.0211459907894737e+03  4.0218082162296723e+03  4.0196026891232445e+03  4.0148473029207016e+03  4.0082715907201687e+03  4.0008495160600778e+03  3.9936080735738346e+03  3.9874507188763760e+03  3.9830238153102441e+03  3.9806420020382575e+03  3.9802778586705335e+03  3.9816122362817682e+03  3.9841323566420165e+03  </DataArray> 
</PointData> 
</Piece>
</UnstructuredGrid>
</VTKFile>