<?xml version="1.0"?>
<VTKFile type="UnstructuredGrid"  version="0.1"  >
<UnstructuredGrid>
<Piece  NumberOfPoints="676" NumberOfCells="1250">
<Points>
<DataArray  type="Float64"  NumberOfComponents="3"  format="ascii">0 0 0  0.04 0 0  0.08 0 0  0.12 0 0  0.16 0 0  0.2 0 0  0.24 0 0  0.28 0 0  0.32 0 0  0.36 0 0  0.4 0 0  0.44 0 0  0.48 0 0  0.52 0 0  0.5600000000000001 0 0  0.6 0 0  0.64 0 0  0.68 0 0  0.72 0 0  0.76 0 0  0.8 0 0  0.84 0 0  0.88 0 0  0.92 0 0  0.96 0 0  1 0 0  0 0.04 0  0.04 0.04 0  0.08 0.04 0  0.12 0.04 0  0.16 0.04 0  0.2 0.04 0  0.24 0.04 0  0.28 0.04 0  0.32 0.04 0  0.36 0.04 0  0.4 0.04 0  0.44 0.04 0  0.48 0.04 0  0.52 0.04 0  0.5600000000000001 0.04 0  0.6 0.04 0  0.64 0.04 0  0.68 0.04 0  0.72 0.04 0  0.76 0.04 0  0.8 0.04 0  0.84 0.04 0  0.88 0.04 0  0.92 0.04 0  0.96 0.04 0  1 0.04 0  0 0.08 0  0.04 0.08 0  0.08 0.08 0  0.12 0.08 0  0.16 0.08 0  0.2 0.08 0  0.24 0.08 0  0.28 0.08 0  0.32 0.08 0  0.36 0.08 0  0.4 0.08 0  0.44 0.08 0  0.48 0.08 0  0.52 0.08 0  0.5600000000000001 0.08 0  0.6 0.08 0  0.64 0.08 0  0.68 0.08 0  0.72 0.08 0  0.76 0.08 0  0.8 0.08 0  0.84 0.08 0  0.88 0.08 0  0.92 0.08 0  0.96 0.08 0  1 0.08 0  0 0.12 0  0.04 0.12 0  0.08 0.12 0  0.12 0.12 0  0.16 0.12 0  0.2 0.12 0  0.24 0.12 0  0.28 0.12 0  0.32 0.12 0  0.36 0.12 0  0.4 0.12 0  0.44 0.12 0  0.48 0.12 0  0.52 0.12 0  0.5600000000000001 0.12 0  0.6 0.12 0  0.64 0.12 0  0.68 0.12 0  0.72 0.12 0  0.76 0.12 0  0.8 0.12 0  0.84 0.12 0  0.88 0.12 0  0.92 0.12 0  0.96 0.12 0  1 0.12 0  0 0.16 0  0.04 0.16 0  0.08 0.16 0  0.12 0.16 0  0.16 0.16 0  0.2 0.16 0  0.24 0.16 0  0.28 0.16 0  0.32 0.16 0  0.36 0.16 0  0.4 0.16 0  0.44 0.16 0  0.48 0.16 0  0.52 0.16 0  0.5600000000000001 0.16 0  0.6 0.16 0  0.64 0.16 0  0.68 0.16 0  0.72 0.16 0  0.76 0.16 0  0.8 0.16 0  0.84 0.16 0  0.88 0.16 0  0.92 0.16 0  0.96 0.16 0  1 0.16 0  0 0.2 0  0.04 0.2 0  0.08 0.2 0  0.12 0.2 0  0.16 0.2 0  0.2 0.2 0  0.24 0.2 0  0.28 0.2 0  0.32 0.2 0  0.36 0.2 0  0.4 0.2 0  0.44 0.2 0  0.48 0.2 0  0.52 0.2 0  0.5600000000000001 0.2 0  0.6 0.2 0  0.64 0.2 0  0.68 0.2 0  0.72 0.2 0  0.76 0.2 0  0.8 0.2 0  0.84 0.2 0  0.88 0.2 0  0.92 0.2 0  0.96 0.2 0  1 0.2 0  0 0.24 0  0.04 0.24 0  0.08 0.24 0  0.12 0.24 0  0.16 0.24 0  0.2 0.24 0  0.24 0.24 0  0.28 0.24 0  0.32 0.24 0  0.36 0.24 0  0.4 0.24 0  0.44 0.24 0  0.48 0.24 0  0.52 0.24 0  0.5600000000000001 0.24 0  0.6 0.24 0  0.64 0.24 0  0.68 0.24 0  0.72 0.24 0  0.76 0.24 0  0.8 0.24 0  0.84 0.24 0  0.88 0.24 0  0.92 0.24 0  0.96 0.24 0  1 0.24 0  0 0.28 0  0.04 0.28 0  0.08 0.28 0  0.12 0.28 0  0.16 0.28 0  0.2 0.28 0  0.24 0.28 0  0.28 0.28 0  0.32 0.28 0  0.36 0.28 0  0.4 0.28 0  0.44 0.28 0  0.48 0.28 0  0.52 0.28 0  0.5600000000000001 0.28 0  0.6 0.28 0  0.64 0.28 0  0.68 0.28 0  0.72 0.28 0  0.76 0.28 0  0.8 0.28 0  0.84 0.28 0  0.88 0.28 0  0.92 0.28 0  0.96 0.28 0  1 0.28 0  0 0.32 0  0.04 0.32 0  0.08 0.32 0  0.12 0.32 0  0.16 0.32 0  0.2 0.32 0  0.24 0.32 0  0.28 0.32 0  0.32 0.32 0  0.36 0.32 0  0.4 0.32 0  0.44 0.32 0  0.48 0.32 0  0.52 0.32 0  0.5600000000000001 0.32 0  0.6 0.32 0  0.64 0.32 0  0.68 0.32 0  0.72 0.32 0  0.76 0.32 0  0.8 0.32 0  0.84 0.32 0  0.88 0.32 0  0.92 0.32 0  0.96 0.32 0  1 0.32 0  0 0.36 0  0.04 0.36 0  0.08 0.36 0  0.12 0.36 0  0.16 0.36 0  0.2 0.36 0  0.24 0.36 0  0.28 0.36 0  0.32 0.36 0  0.36 0.36 0  0.4 0.36 0  0.44 0.36 0  0.48 0.36 0  0.52 0.36 0  0.5600000000000001 0.36 0  0.6 0.36 0  0.64 0.36 0  0.68 0.36 0  0.72 0.36 0  0.76 0.36 0  0.8 0.36 0  0.84 0.36 0  0.88 0.36 0  0.92 0.36 0  0.96 0.36 0  1 0.36 0  0 0.4 0  0.04 0.4 0  0.08 0.4 0  0.12 0.4 0  0.16 0.4 0  0.2 0.4 0  0.24 0.4 0  0.28 0.4 0  0.32 0.4 0  0.36 0.4 0  0.4 0.4 0  0.44 0.4 0  0.48 0.4 0  0.52 0.4 0  0.5600000000000001 0.4 0  0.6 0.4 0  0.64 0.4 0  0.68 0.4 0  0.72 0.4 0  0.76 0.4 0  0.8 0.4 0  0.84 0.4 0  0.88 0.4 0  0.92 0.4 0  0.96 0.4 0  1 0.4 0  0 0.44 0  0.04 0.44 0  0.08 0.44 0  0.12 0.44 0  0.16 0.44 0  0.2 0.44 0  0.24 0.44 0  0.28 0.44 0  0.32 0.44 0  0.36 0.44 0  0.4 0.44 0  0.44 0.44 0  0.48 0.44 0  0.52 0.44 0  0.5600000000000001 0.44 0  0.6 0.44 0  0.64 0.44 0  0.68 0.44 0  0.72 0.44 0  0.76 0.44 0  0.8 0.44 0  0.84 0.44 0  0.88 0.44 0  0.92 0.44 0  0.96 0.44 0  1 0.44 0  0 0.48 0  0.04 0.48 0  0.08 0.48 0  0.12 0.48 0  0.16 0.48 0  0.2 0.48 0  0.24 0.48 0  0.28 0.48 0  0.32 0.48 0  0.36 0.48 0  0.4 0.48 0  0.44 0.48 0  0.48 0.48 0  0.52 0.48 0  0.5600000000000001 0.48 0  0.6 0.48 0  0.64 0.48 0  0.68 0.48 0  0.72 0.48 0  0.76 0.48 0  0.8 0.48 0  0.84 0.48 0  0.88 0.48 0  0.92 0.48 0  0.96 0.48 0  1 0.48 0  0 0.52 0  0.04 0.52 0  0.08 0.52 0  0.12 0.52 0  0.16 0.52 0  0.2 0.52 0  0.24 0.52 0  0.28 0.52 0  0.32 0.52 0  0.36 0.52 0  0.4 0.52 0  0.44 0.52 0  0.48 0.52 0  0.52 0.52 0  0.5600000000000001 0.52 0  0.6 0.52 0  0.64 0.52 0  0.68 0.52 0  0.72 0.52 0  0.76 0.52 0  0.8 0.52 0  0.84 0.52 0  0.88 0.52 0  0.92 0.52 0  0.96 0.52 0  1 0.52 0  0 0.5600000000000001 0  0.04 0.5600000000000001 0  0.08 0.5600000000000001 0  0.12 0.5600000000000001 0  0.16 0.5600000000000001 0  0.2 0.5600000000000001 0  0.24 0.5600000000000001 0  0.28 0.5600000000000001 0  0.32 0.5600000000000001 0  0.36 0.5600000000000001 0  0.4 0.5600000000000001 0  0.44 0.5600000000000001 0  0.48 0.5600000000000001 0  0.52 0.5600000000000001 0  0.5600000000000001 0.5600000000000001 0  0.6 0.5600000000000001 0  0.64 0.5600000000000001 0  0.68 0.5600000000000001 0  0.72 0.5600000000000001 0  0.76 0.5600000000000001 0  0.8 0.5600000000000001 0  0.84 0.5600000000000001 0  0.88 0.5600000000000001 0  0.92 0.5600000000000001 0  0.96 0.5600000000000001 0  1 0.5600000000000001 0  0 0.6 0  0.04 0.6 0  0.08 0.6 0  0.12 0.6 0  0.16 0.6 0  0.2 0.6 0  0.24 0.6 0  0.28 0.6 0  0.32 0.6 0  0.36 0.6 0  0.4 0.6 0  0.44 0.6 0  0.48 0.6 0  0.52 0.6 0  0.5600000000000001 0.6 0  0.6 0.6 0  0.64 0.6 0  0.68 0.6 0  0.72 0.6 0  0.76 0.6 0  0.8 0.6 0  0.84 0.6 0  0.88 0.6 0  0.92 0.6 0  0.96 0.6 0  1 0.6 0  0 0.64 0  0.04 0.64 0  0.08 0.64 0  0.12 0.64 0  0.16 0.64 0  0.2 0.64 0  0.24 0.64 0  0.28 0.64 0  0.32 0.64 0  0.36 0.64 0  0.4 0.64 0  0.44 0.64 0  0.48 0.64 0  0.52 0.64 0  0.5600000000000001 0.64 0  0.6 0.64 0  0.64 0.64 0  0.68 0.64 0  0.72 0.64 0  0.76 0.64 0  0.8 0.64 0  0.84 0.64 0  0.88 0.64 0  0.92 0.64 0  0.96 0.64 0  1 0.64 0  0 0.68 0  0.04 0.68 0  0.08 0.68 0  0.12 0.68 0  0.16 0.68 0  0.2 0.68 0  0.24 0.68 0  0.28 0.68 0  0.32 0.68 0  0.36 0.68 0  0.4 0.68 0  0.44 0.68 0  0.48 0.68 0  0.52 0.68 0  0.5600000000000001 0.68 0  0.6 0.68 0  0.64 0.68 0  0.68 0.68 0  0.72 0.68 0  0.76 0.68 0  0.8 0.68 0  0.84 0.68 0  0.88 0.68 0  0.92 0.68 0  0.96 0.68 0  1 0.68 0  0 0.72 0  0.04 0.72 0  0.08 0.72 0  0.12 0.72 0  0.16 0.72 0  0.2 0.72 0  0.24 0.72 0  0.28 0.72 0  0.32 0.72 0  0.36 0.72 0  0.4 0.72 0  0.44 0.72 0  0.48 0.72 0  0.52 0.72 0  0.5600000000000001 0.72 0  0.6 0.72 0  0.64 0.72 0  0.68 0.72 0  0.72 0.72 0  0.76 0.72 0  0.8 0.72 0  0.84 0.72 0  0.88 0.72 0  0.92 0.72 0  0.96 0.72 0  1 0.72 0  0 0.76 0  0.04 0.76 0  0.08 0.76 0  0.12 0.76 0  0.16 0.76 0  0.2 0.76 0  0.24 0.76 0  0.28 0.76 0  0.32 0.76 0  0.36 0.76 0  0.4 0.76 0  0.44 0.76 0  0.48 0.76 0  0.52 0.76 0  0.5600000000000001 0.76 0  0.6 0.76 0  0.64 0.76 0  0.68 0.76 0  0.72 0.76 0  0.76 0.76 0  0.8 0.76 0  0.84 0.76 0  0.88 0.76 0  0.92 0.76 0  0.96 0.76 0  1 0.76 0  0 0.8 0  0.04 0.8 0  0.08 0.8 0  0.12 0.8 0  0.16 0.8 0  0.2 0.8 0  0.24 0.8 0  0.28 0.8 0  0.32 0.8 0  0.36 0.8 0  0.4 0.8 0  0.44 0.8 0  0.48 0.8 0  0.52 0.8 0  0.5600000000000001 0.8 0  0.6 0.8 0  0.64 0.8 0  0.68 0.8 0  0.72 0.8 0  0.76 0.8 0  0.8 0.8 0  0.84 0.8 0  0.88 0.8 0  0.92 0.8 0  0.96 0.8 0  1 0.8 0  0 0.84 0  0.04 0.84 0  0.08 0.84 0  0.12 0.84 0  0.16 0.84 0  0.2 0.84 0  0.24 0.84 0  0.28 0.84 0  0.32 0.84 0  0.36 0.84 0  0.4 0.84 0  0.44 0.84 0  0.48 0.84 0  0.52 0.84 0  0.5600000000000001 0.84 0  0.6 0.84 0  0.64 0.84 0  0.68 0.84 0  0.72 0.84 0  0.76 0.84 0  0.8 0.84 0  0.84 0.84 0  0.88 0.84 0  0.92 0.84 0  0.96 0.84 0  1 0.84 0  0 0.88 0  0.04 0.88 0  0.08 0.88 0  0.12 0.88 0  0.16 0.88 0  0.2 0.88 0  0.24 0.88 0  0.28 0.88 0  0.32 0.88 0  0.36 0.88 0  0.4 0.88 0  0.44 0.88 0  0.48 0.88 0  0.52 0.88 0  0.5600000000000001 0.88 0  0.6 0.88 0  0.64 0.88 0  0.68 0.88 0  0.72 0.88 0  0.76 0.88 0  0.8 0.88 0  0.84 0.88 0  0.88 0.88 0  0.92 0.88 0  0.96 0.88 0  1 0.88 0  0 0.92 0  0.04 0.92 0  0.08 0.92 0  0.12 0.92 0  0.16 0.92 0  0.2 0.92 0  0.24 0.92 0  0.28 0.92 0  0.32 0.92 0  0.36 0.92 0  0.4 0.92 0  0.44 0.92 0  0.48 0.92 0  0.52 0.92 0  0.5600000000000001 0.92 0  0.6 0.92 0  0.64 0.92 0  0.68 0.92 0  0.72 0.92 0  0.76 0.92 0  0.8 0.92 0  0.84 0.92 0  0.88 0.92 0  0.92 0.92 0  0.96 0.92 0  1 0.92 0  0 0.96 0  0.04 0.96 0  0.08 0.96 0  0.12 0.96 0  0.16 0.96 0  0.2 0.96 0  0.24 0.96 0  0.28 0.96 0  0.32 0.96 0  0.36 0.96 0  0.4 0.96 0  0.44 0.96 0  0.48 0.96 0  0.52 0.96 0  0.5600000000000001 0.96 0  0.6 0.96 0  0.64 0.96 0  0.68 0.96 0  0.72 0.96 0  0.76 0.96 0  0.8 0.96 0  0.84 0.96 0  0.88 0.96 0  0.92 0.96 0  0.96 0.96 0  1 0.96 0  0 1 0  0.04 1 0  0.08 1 0  0.12 1 0  0.16 1 0  0.2 1 0  0.24 1 0  0.28 1 0  0.32 1 0  0.36 1 0  0.4 1 0  0.44 1 0  0.48 1 0  0.52 1 0  0.5600000000000001 1 0  0.6 1 0  0.64 1 0  0.68 1 0  0.72 1 0  0.76 1 0  0.8 1 0  0.84 1 0  0.88 1 0  0.92 1 0  0.96 1 0  1 1 0  </DataArray>
</Points>
<Cells>
[...]
<PointData  Scalars="gamma"> 
<DataArray  type="Float64"  Name="gamma"  format="ascii">4.0066148856587452e+03  4.0102934070927413e+03  4.0145472581851704e+03  4.0188472940751294e+03  4.0224865067388687e+03  4.0247260777440124e+03  4.0249822337668925e+03  4.0229989796264081e+03  4.0189508136237855e+03  4.0134384416844496e+03  4.0073722014215855e+03  4.0017710835056905e+03  3.9975293104623479e+03  3.9952111316698001e+03  3.9949268579372142e+03  3.9963223295696075e+03  3.9986852938251259e+03  4.0011417710757278e+03  4.0028902355005516e+03  4.0034084818117267e+03  4.0025733272741618e+03  4.0006584243550028e+03  3.9982146918921485e+03  3.9958779052289410e+03  3.9941724430809122e+03  3.9933776009189451e+03  4.0052561904487793e+03  4.0091766105580823e+03  4.0138994779569011e+03  4.0188298231233148e+03  4.0231289892270788e+03  4.0258873788169203e+03  4.0263557149712838e+03  4.0241663271790517e+03  4.0194725921759605e+03  4.0129572305848346e+03  4.0056998678742102e+03  3.9989364430293367e+03  3.9937738424816457e+03  3.9909345115576552e+03  3.9905968191347802e+03  3.9923718999163352e+03  3.9954231834000921e+03  3.9986980862041396e+03  4.0012102353578289e+03  4.0022936845924364e+03  4.0017555062978017e+03  3.9998825140064387e+03  3.9973051412156833e+03  3.9947704681999608e+03  3.9929068657259209e+03  3.9920605588940448e+03  4.0023311320955813e+03  4.0061183109010776e+03  4.0109726113278257e+03  4.0162740876630601e+03  4.0210848239183374e+03  4.0243411222539162e+03  4.0251250416982516e+03  4.0229343372962426e+03  4.0178629665278404e+03  4.0106295388772182e+03  4.0024381350412459e+03  3.9947068720912034e+03  3.9887372597637018e+03  3.9854118518831251e+03  3.9849979703261392e+03  3.9871067696819173e+03  3.9908175027479751e+03  3.9949346728516753e+03  3.9983093914220535e+03  4.0001353914317601e+03  4.0001339373612695e+03  3.9985740920330700e+03  3.9961285126848638e+03  3.9936216205706965e+03  3.9917631156193202e+03  3.9909587443287833e+03  3.9978589783735529e+03  4.0010977938865558e+03  4.0056922119731516e+03  4.0110473485498346e+03  4.0161724392789433e+03  4.0198821342220472e+03  4.0210997541858360e+03  4.0191716160563819e+03  4.0140902088445314e+03  4.0065503181624222e+03  3.9978149737639928e+03  3.9894266595860681e+03  3.9828433831730458e+03  3.9790971291530636e+03  3.9785626836743781e+03  3.9808941005512797e+03  3.9851431775320971e+03  3.9900280890133918e+03  3.9942798073858139e+03  3.9969695133366431e+03  3.9977221413896291e+03  3.9967544034750413e+03  3.9947332708897789e+03  3.9925130634161619e+03  3.9908501195008816e+03  3.9901948144762177e+03  3.9921939579887839e+03  3.9945112961716418e+03  3.9984759835188579e+03  4.0035687708873188e+03  4.0087993717949767e+03  4.0129050039301810e+03  4.0146733324386855e+03  4.0132926334976678e+03  4.0086156831332260e+03  4.0012495026689776e+03  3.9924391920804951e+03  3.9837782004475630e+03  3.9768270407899604e+03  3.9727441151355010e+03  3.9720241533667281e+03  3.9744084763504075e+03  3.9789866416483469e+03  3.9844604633312529e+03  3.9894981878320659e+03  3.9930793578802932e+03  3.9947304751580446e+03  3.9945837131696367e+03  3.9932494381676220e+03  3.9915580530389166e+03  3.9902707405501801e+03  3.9898620013142363e+03  3.9859916365615341e+03  3.9871341560320925e+03  3.9901930398144586e+03  3.9947666117513509e+03  3.9999169973849234e+03  4.0043543829239848e+03  4.0067656610815288e+03  4.0061883115888172e+03  4.0023090823052225e+03  3.9955902303139924e+03  3.9871826494945681e+03  3.9786521216393894e+03  3.9715985032402868e+03  3.9672730428265695e+03  3.9662934767625388e+03  3.9685265162600881e+03  3.9731628661928653e+03  3.9789608269596365e+03  3.9845901992839636e+03  3.9889790905956738e+03  3.9915631585660499e+03  3.9923660435220504e+03  3.9918960113141056e+03  3.9909080046482622e+03  3.9901257996406439e+03  3.9900252363722334e+03  3.9800929197997762e+03  3.9799789337764105e+03  3.9819984972436810e+03  3.9858934647827205e+03  3.9908215699730540e+03  3.9955168736974169e+03  3.9986098525754314e+03  3.9990104527767512e+03  3.9962318180340703e+03  3.9905517604377046e+03  3.9829631841330952e+03  3.9749312510363566e+03  3.9680304912082966e+03  3.9635637585966947e+03  3.9622630503619521e+03  3.9641452481080673e+03  3.9685535006948971e+03  3.9743671447184111e+03  3.9803191136273972e+03  3.9853297698704037e+03  3.9887603485026011e+03  3.9905140336451373e+03  3.9909640320161034e+03  3.9907486443352914e+03  3.9905183769810528e+03  3.9907294524704830e+03  3.9753583103475403e+03  3.9740910026174888e+03  3.9750936899842850e+03  3.9782577942857843e+03  3.9828662379872462e+03  3.9877237062111421e+03  3.9914551447182171e+03  3.9928824003020413e+03  3.9913601237063754e+03  3.9869667034437211e+03  3.9804951717873059e+03  3.9732521795300959e+03  3.9667280188222480e+03  3.9622318197955201e+03  3.9605884616162780e+03  3.9619714106239203e+03  3.9659072990604959e+03  3.9714431396020250e+03  3.9774248351131400e+03  3.9828056068129213e+03  3.9868946712153052e+03  3.9894760221825518e+03  3.9907716330345670e+03  3.9912781277490021e+03  3.9915488245468573e+03  3.9920051746434842e+03  3.9724975592563451e+03  3.9703388481042139e+03  3.9704811124600274e+03  3.9729513807979656e+03  3.9771718114797804e+03  3.9820570574239273e+03  3.9862805118630772e+03  3.9886293315645985e+03  3.9883376940951757e+03  3.9852973702948493e+03  3.9800869790208417e+03  3.9738183392608894e+03  3.9678503098861916e+03  3.9634528404163898e+03  3.9615107437046622e+03  3.9623400759515189e+03  3.9656570231006272e+03  3.9706985697037489e+03  3.9764547853953923e+03  3.9819432296198165e+03  3.9864453979101431e+03  3.9896389760054103e+03  3.9915961497944654e+03  3.9926655112319131e+03  3.9932944183002028e+03  3.9938631067156839e+03  3.9719362046099145e+03  3.9692510568435159e+03  3.9687760918748090e+03  3.9706432681738470e+03  3.9744131572664915e+03  3.9791402973199729e+03  3.9835996461276081e+03  3.9866065123194671e+03  3.9873319025968026e+03  3.9855200059832046e+03  3.9815487713241309e+03  3.9763234878999474e+03  3.9710402706474933e+03  3.9668883935207746e+03  3.9647710751051927e+03  3.9651138224246779e+03  3.9678028242010264e+03  3.9722605908799405e+03  3.9776302215753676e+03  3.9830116231479892e+03  3.9876805130121138e+03  3.9912293159206156e+03  3.9935973141897075e+03  3.9949966004526636e+03  3.9957753261682251e+03  3.9962759021546408e+03  3.9737460141593519e+03  3.9709329682734287e+03  3.9701134301707830e+03  3.9714824665464457e+03  3.9747257981968269e+03  3.9790571250136045e+03  3.9834007641221806e+03  3.9866659199741775e+03  3.9880300501445813e+03  3.9871492784193956e+03  3.9842395816761282e+03  3.9800122046684814e+03  3.9754872543443144e+03  3.9717397282232810e+03  3.9696458016367046e+03  3.9696925557818245e+03  3.9718943928294807e+03  3.9758299870348133e+03  3.9807819780069494e+03  3.9859353044561567e+03  3.9905761448852518e+03  3.9942366833309766e+03  3.9967513957378969e+03  3.9982217827171153e+03  3.9989167502251421e+03  3.9991531310391197e+03  3.9776483110314648e+03  3.9750728755227706e+03  3.9741590070894244e+03  3.9751185426451570e+03  3.9777399733737543e+03  3.9814040380436368e+03  3.9852221414241271e+03  3.9882582312436766e+03  3.9897688644243431e+03  3.9893931611737717e+03  3.9872419178235273e+03  3.9838653988061583e+03  3.9801125486575679e+03  3.9769217518154728e+03  3.9750985244726885e+03  3.9751358433579521e+03  3.9771191704353596e+03  3.9807347503833648e+03  3.9853725219962921e+03  3.9902907934105338e+03  3.9947950486107229e+03  3.9983823543480416e+03  4.0008165664367057e+03  4.0021236052514405e+03  4.0025218746268642e+03  4.0023207925977508e+03  3.9830828126459637e+03  3.9810272825086035e+03  3.9802119865922205e+03  3.9808212143621477e+03  3.9827182612634901e+03  3.9854469704678008e+03  3.9883289789123887e+03  3.9906309143035037e+03  3.9917538790682102e+03  3.9913919084564300e+03  3.9896162639554641e+03  3.9868637359267700e+03  3.9838330483556047e+03  3.9813171926488544e+03  3.9800152109092614e+03  3.9803709093453845e+03  3.9824776169987895e+03  3.9860699915360660e+03  3.9906009181576924e+03  3.9953797171367291e+03  3.9997329073328769e+03  4.0031448560137383e+03  4.0053440620884248e+03  4.0063190188603990e+03  4.0062695201228039e+03  4.0055173303902407e+03  3.9893224207514927e+03  3.9879600145178902e+03  3.9873662799529225e+03  3.9876611565702824e+03  3.9887524592659393e+03  3.9903314629017300e+03  3.9919350605443783e+03  3.9930606439016087e+03  3.9933025836775023e+03  3.9924718931228499e+03  3.9906646664199875e+03  3.9882584401975964e+03  3.9858348863958081e+03  3.9840470856568236e+03  3.9834646843187115e+03  3.9844363287907618e+03  3.9870042439185631e+03  3.9908920446616225e+03  3.9955676985468344e+03  4.0003641539565115e+03  4.0046256661039238e+03  4.0078421982583236e+03  4.0097390748429948e+03  4.0103029941544992e+03  4.0097443839576963e+03  4.0084139265457065e+03  3.9956072821809389e+03  3.9950018400812687e+03  3.9946911656120965e+03  3.9947053395345979e+03  3.9949668696501549e+03  3.9952879197575671e+03  3.9954058408457263e+03  3.9950524792222341e+03  3.9940403271555588e+03  3.9923406429898860e+03  3.9901280657637449e+03  3.9877736884568126e+03  3.9857822907377804e+03  3.9846855822484522e+03  3.9849169337525695e+03  3.9866998381214758e+03  3.9899800307601176e+03  3.9944204085635624e+03  3.9994616874740855e+03  4.0044346180659845e+03  4.0086961660717925e+03  4.0117559790608607e+03  4.0133624404450597e+03  4.0135290239111905e+03  4.0124984635157571e+03  4.0106595373215846e+03  4.0012699222001202e+03  4.0013961702596584e+03  4.0013908387455845e+03  4.0011816676893673e+03  4.0006787433692652e+03  3.9997797182988365e+03  3.9983886547583179e+03  3.9964501001892158e+03  3.9939922462663071e+03  3.9911654291091704e+03  3.9882587830625953e+03  3.9856810934179666e+03  3.9839015321717848e+03  3.9833589382580149e+03  3.9843600271006922e+03  3.9869931232938447e+03  3.9910823565428518e+03  3.9961980128115201e+03  4.0017245050471920e+03  4.0069722413228988e+03  4.0113077515536329e+03  4.0142711127476714e+03  4.0156526042028881e+03  4.0155111310162015e+03  4.0141326422824018e+03  4.0119431481209785e+03  4.0058275476783297e+03  4.0066025268760409e+03  4.0069111956460356e+03  4.0065792430397519e+03  4.0054817770402919e+03  4.0035610680424779e+03  4.0008390235531260e+03  3.9974286817983375e+03  3.9935453001227211e+03  3.9895112662968090e+03  3.9857446094775541e+03  3.9827219132604559e+03  3.9809134943591894e+03  3.9806992012855503e+03  3.9822828035853040e+03  3.9856276824060615e+03  3.9904342407510940e+03  3.9961704258766981e+03  4.0021534782000967e+03  4.0076672925001908e+03  4.0120895883420376e+03  4.0149994958630364e+03  4.0162404529017726e+03  4.0159246080714161e+03  4.0143803230718672e+03  4.0120594934773994e+03  4.0090269729463148e+03  4.0103417754485058e+03  4.0109778720770332e+03  4.0106701202350678e+03  4.0092422431414111e+03  4.0066394872888027e+03  4.0029442093666712e+03  3.9983780780476086e+03  3.9932939818520967e+03  3.9881563464845785e+03  3.9835048263787953e+03  3.9798970467492627e+03  3.9778320052772065e+03  3.9776644753100763e+03  3.9795282622868267e+03  3.9832888599368607e+03  3.9885421933579091e+03  3.9946663069077567e+03  4.0009196547911929e+03  4.0065668892912977e+03  4.0110046355186159e+03  4.0138585320787802e+03  4.0150295919675241e+03  4.0146810394174581e+03  4.0131724751055363e+03  4.0109617652871138e+03  4.0108398538293186e+03  4.0125827037921085e+03  4.0135686676668388e+03  4.0134610925631032e+03  4.0120234531216170e+03  4.0091670846319639e+03  4.0049773392960296e+03  3.9997185846543225e+03  3.9938198712810968e+03  3.9878410875768573e+03  3.9824177805247596e+03  3.9781848047070830e+03  3.9756850040311629e+03  3.9752767857035101e+03  3.9770599995173097e+03  3.9808399278356655e+03  3.9861432454497358e+03  3.9922885431288082e+03  3.9985002956329795e+03  4.0040429617299833e+03  4.0083452055344105e+03  4.0110856959452085e+03  4.0122217776358716e+03  4.0119578139645014e+03  4.0106662813673747e+03  4.0087863781420601e+03  4.0114177353002151e+03  4.0134840609357316e+03  4.0148405060935038e+03  4.0151031250839610e+03  4.0139748507063837e+03  4.0113063918665921e+03  4.0071374436223086e+03  4.0017136755327797e+03  3.9954772411189424e+03  3.9890289778872807e+03  3.9830617910773149e+03  3.9782690604361105e+03  3.9752389652376805e+03  3.9743527698509470e+03  3.9757089716690180e+03  3.9790933387254381e+03  3.9840067134919527e+03  3.9897495468475909e+03  3.9955476542512238e+03  4.0006918387790047e+03  4.0046588817666302e+03  4.0071854890003929e+03  4.0082797043175178e+03  4.0081722587992354e+03  4.0072271523046429e+03  4.0058404095939741e+03  4.0110244899712411e+03  4.0133153147694306e+03  4.0150406446377269e+03  4.0157952279400392e+03  4.0152300168677334e+03  4.0131226383534445e+03  4.0094346762351429e+03  4.0043457505147667e+03  3.9982565523754433e+03  3.9917555603349442e+03  3.9855486803507920e+03  3.9803582254111761e+03  3.9768061959866891e+03  3.9753038698051091e+03  3.9759722193238777e+03  3.9786138317288919e+03  3.9827469009851679e+03  3.9876974884934452e+03  3.9927311149953721e+03  3.9971932145940436e+03  4.0006241958882847e+03  4.0028211910879913e+03  4.0038340959816837e+03  4.0039034306384838e+03  4.0033646158509814e+03  4.0025508251521865e+03  4.0099659286540796e+03  4.0123805115686951e+03  4.0144309139731367e+03  4.0157155492320212e+03  4.0158499068454926e+03  4.0145419246213719e+03  4.0116630110223455e+03  4.0072998103900381e+03  4.0017732032628223e+03  3.9956151803896537e+03  3.9895015589422405e+03  3.9841483179522211e+03  3.9801893700077435e+03  3.9780607376165253e+03  3.9779176486588840e+03  3.9796057644940956e+03  3.9826962530354635e+03  3.9865791043256481e+03  3.9905936735046425e+03  3.9941643552483129e+03  3.9969066449081520e+03  3.9986768113812345e+03  3.9995556334969660e+03  3.9997776657569311e+03  3.9996342898050075e+03  3.9993843975310569e+03  4.0085326373496168e+03  4.0109629748996144e+03  4.0132431083819374e+03  4.0149967573987756e+03  4.0158261085249137e+03  4.0153870672938374e+03  4.0134690791864023e+03  4.0100611585114016e+03  4.0053860918851983e+03  3.9998898251133537e+03  3.9941823395738525e+03  3.9889380262236500e+03  3.9847746703306620e+03  3.9821373983009744e+03  3.9812148907458550e+03  3.9819090536237468e+03  3.9838672139534247e+03  3.9865703979303225e+03  3.9894561326041799e+03  3.9920438245208743e+03  3.9940290212409650e+03  3.9953217047985772e+03  3.9960215677831088e+03  3.9963442122664201e+03  3.9965281250160219e+03  3.9967561334042748e+03  4.0069644516244316e+03  4.0092973414726071e+03  4.0116679144584914e+03  4.0137417636472692e+03  4.0151320409342925e+03  4.0154699627663545e+03  4.0144870880032613e+03  4.0120894434987144e+03  4.0084028737765266e+03  4.0037742663227559e+03  3.9987234933167429e+03  3.9938534302506350e+03  3.9897368513238944e+03  3.9868061150898534e+03  3.9852722112947604e+03  3.9850934863783568e+03  3.9860024677717583e+03  3.9875843458215782e+03  3.9893864996154175e+03  3.9910290372968611e+03  3.9922852389929335e+03  3.9931097178134964e+03  3.9936093215168339e+03  3.9939716256952629e+03  3.9943803225864845e+03  3.9949492475582197e+03  4.0054366642851719e+03  4.0075644675130688e+03  4.0098658376787607e+03  4.0120586815609531e+03  4.0137894293690201e+03  4.0146951845485737e+03  4.0144820996381045e+03  4.0130003997493154e+03  4.0102950301008905e+03  4.0066158773043690e+03  4.0023815379149269e+03  3.9981028088373200e+03  3.9942830156865248e+03  3.9913189573801988e+03  3.9894267965558174e+03  3.9886114101228923e+03  3.9886868248798232e+03  3.9893419301563299e+03  3.9902330278068875e+03  3.9910765859694625e+03  3.9917149293543885e+03  3.9921359118358246e+03  3.9924432117102201e+03  3.9927915852451256e+03  3.9933139429032822e+03  3.9940684963897984e+03  4.0040621511554550e+03  4.0058984543798369e+03  4.0079824674406645e+03  4.0100884822238354e+03  4.0119129624627412e+03  4.0131261281574430e+03  4.0134412679976199e+03  4.0126841158705561e+03  4.0108428128323526e+03  4.0080832906214523e+03  4.0047239282791998e+03  4.0011742679510239e+03  3.9978522923749342e+03  3.9951006447403624e+03  3.9931226971657516e+03  3.9919543988321884e+03  3.9914785275904451e+03  3.9914765455694642e+03  3.9917026040832011e+03  3.9919574380792646e+03  3.9921395303140448e+03  3.9922581126249574e+03  3.9924058337648062e+03  3.9927038213726610e+03  3.9932421928143622e+03  3.9940397387322469e+03  </DataArray> 
</PointData> 
</Piece>
</UnstructuredGrid>
</VTKFile>