<?xml version="1.0"?>
<VTKFile type="UnstructuredGrid"  version="0.1"  >
<UnstructuredGrid>
<Piece  NumberOfPoints="676" NumberOfCells="1250">
<Points>
<DataArray  type="Float64"  NumberOfComponents="3"  format="ascii">0 0 0  0.04 0 0  0.08 0 0  0.12 0 0  0.16 0 0  0.2 0 0  0.24 0 0  0.28 0 0  0.32 0 0  0.36 0 0  0.4 0 0  0.44 0 0  0.48 0 0  0.52 0 0  0.5600000000000001 0 0  0.6 0 0  0.64 0 0  0.68 0 0  0.72 0 0  0.76 0 0  0.8 0 0  0.84 0 0  0.88 0 0  0.92 0 0  0.96 0 0  1 0 0  0 0.04 0  0.04 0.04 0  0.08 0.04 0  0.12 0.04 0  0.16 0.04 0  0.2 0.04 0  0.24 0.04 0  0.28 0.04 0  0.32 0.04 0  0.36 0.04 0  0.4 0.04 0  0.44 0.04 0  0.48 0.04 0  0.52 0.04 0  0.5600000000000001 0.04 0  0.6 0.04 0  0.64 0.04 0  0.68 0.04 0  0.72 0.04 0  0.76 0.04 0  0.8 0.04 0  0.84 0.04 0  0.88 0.04 0  0.92 0.04 0  0.96 0.04 0  1 0.04 0  0 0.08 0  0.04 0.08 0  0.08 0.08 0  0.12 0.08 0  0.16 0.08 0  0.2 0.08 0  0.24 0.08 0  0.28 0.08 0  0.32 0.08 0  0.36 0.08 0  0.4 0.08 0  0.44 0.08 0  0.48 0.08 0  0.52 0.08 0  0.5600000000000001 0.08 0  0.6 0.08 0  0.64 0.08 0  0.68 0.08 0  0.72 0.08 0  0.76 0.08 0  0.8 0.08 0  0.84 0.08 0  0.88 0.08 0  0.92 0.08 0  0.96 0.08 0  1 0.08 0  0 0.12 0  0.04 0.12 0  0.08 0.12 0  0.12 0.12 0  0.16 0.12 0  0.2 0.12 0  0.24 0.12 0  0.28 0.12 0  0.32 0.12 0  0.36 0.12 0  0.4 0.12 0  0.44 0.12 0  0.48 0.12 0  0.52 0.12 0  0.5600000000000001 0.12 0  0.6 0.12 0  0.64 0.12 0  0.68 0.12 0  0.72 0.12 0  0.76 0.12 0  0.8 0.12 0  0.84 0.12 0  0.88 0.12 0  0.92 0.12 0  0.96 0.12 0  1 0.12 0  0 0.16 0  0.04 0.16 0  0.08 0.16 0  0.12 0.16 0  0.16 0.16 0  0.2 0.16 0  0.24 0.16 0  0.28 0.16 0  0.32 0.16 0  0.36 0.16 0  0.4 0.16 0  0.44 0.16 0  0.48 0.16 0  0.52 0.16 0  0.5600000000000001 0.16 0  0.6 0.16 0  0.64 0.16 0  0.68 0.16 0  0.72 0.16 0  0.76 0.16 0  0.8 0.16 0  0.84 0.16 0  0.88 0.16 0  0.92 0.16 0  0.96 0.16 0  1 0.16 0  0 0.2 0  0.04 0.2 0  0.08 0.2 0  0.12 0.2 0  0.16 0.2 0  0.2 0.2 0  0.24 0.2 0  0.28 0.2 0  0.32 0.2 0  0.36 0.2 0  0.4 0.2 0  0.44 0.2 0  0.48 0.2 0  0.52 0.2 0  0.5600000000000001 0.2 0  0.6 0.2 0  0.64 0.2 0  0.68 0.2 0  0.72 0.2 0  0.76 0.2 0  0.8 0.2 0  0.84 0.2 0  0.88 0.2 0  0.92 0.2 0  0.96 0.2 0  1 0.2 0  0 0.24 0  0.04 0.24 0  0.08 0.24 0  0.12 0.24 0  0.16 0.24 0  0.2 0.24 0  0.24 0.24 0  0.28 0.24 0  0.32 0.24 0  0.36 0.24 0  0.4 0.24 0  0.44 0.24 0  0.48 0.24 0  0.52 0.24 0  0.5600000000000001 0.24 0  0.6 0.24 0  0.64 0.24 0  0.68 0.24 0  0.72 0.24 0  0.76 0.24 0  0.8 0.24 0  0.84 0.24 0  0.88 0.24 0  0.92 0.24 0  0.96 0.24 0  1 0.24 0  0 0.28 0  0.04 0.28 0  0.08 0.28 0  0.12 0.28 0  0.16 0.28 0  0.2 0.28 0  0.24 0.28 0  0.28 0.28 0  0.32 0.28 0  0.36 0.28 0  0.4 0.28 0  0.44 0.28 0  0.48 0.28 0  0.52 0.28 0  0.5600000000000001 0.28 0  0.6 0.28 0  0.64 0.28 0  0.68 0.28 0  0.72 0.28 0  0.76 0.28 0  0.8 0.28 0  0.84 0.28 0  0.88 0.28 0  0.92 0.28 0  0.96 0.28 0  1 0.28 0  0 0.32 0  0.04 0.32 0  0.08 0.32 0  0.12 0.32 0  0.16 0.32 0  0.2 0.32 0  0.24 0.32 0  0.28 0.32 0  0.32 0.32 0  0.36 0.32 0  0.4 0.32 0  0.44 0.32 0  0.48 0.32 0  0.52 0.32 0  0.5600000000000001 0.32 0  0.6 0.32 0  0.64 0.32 0  0.68 0.32 0  0.72 0.32 0  0.76 0.32 0  0.8 0.32 0  0.84 0.32 0  0.88 0.32 0  0.92 0.32 0  0.96 0.32 0  1 0.32 0  0 0.36 0  0.04 0.36 0  0.08 0.36 0  0.12 0.36 0  0.16 0.36 0  0.2 0.36 0  0.24 0.36 0  0.28 0.36 0  0.32 0.36 0  0.36 0.36 0  0.4 0.36 0  0.44 0.36 0  0.48 0.36 0  0.52 0.36 0  0.5600000000000001 0.36 0  0.6 0.36 0  0.64 0.36 0  0.68 0.36 0  0.72 0.36 0  0.76 0.36 0  0.8 0.36 0  0.84 0.36 0  0.88 0.36 0  0.92 0.36 0  0.96 0.36 0  1 0.36 0  0 0.4 0  0.04 0.4 0  0.08 0.4 0  0.12 0.4 0  0.16 0.4 0  0.2 0.4 0  0.24 0.4 0  0.28 0.4 0  0.32 0.4 0  0.36 0.4 0  0.4 0.4 0  0.44 0.4 0  0.48 0.4 0  0.52 0.4 0  0.5600000000000001 0.4 0  0.6 0.4 0  0.64 0.4 0  0.68 0.4 0  0.72 0.4 0  0.76 0.4 0  0.8 0.4 0  0.84 0.4 0  0.88 0.4 0  0.92 0.4 0  0.96 0.4 0  1 0.4 0  0 0.44 0  0.04 0.44 0  0.08 0.44 0  0.12 0.44 0  0.16 0.44 0  0.2 0.44 0  0.24 0.44 0  0.28 0.44 0  0.32 0.44 0  0.36 0.44 0  0.4 0.44 0  0.44 0.44 0  0.48 0.44 0  0.52 0.44 0  0.5600000000000001 0.44 0  0.6 0.44 0  0.64 0.44 0  0.68 0.44 0  0.72 0.44 0  0.76 0.44 0  0.8 0.44 0  0.84 0.44 0  0.88 0.44 0  0.92 0.44 0  0.96 0.44 0  1 0.44 0  0 0.48 0  0.04 0.48 0  0.08 0.48 0  0.12 0.48 0  0.16 0.48 0  0.2 0.48 0  0.24 0.48 0  0.28 0.48 0  0.32 0.48 0  0.36 0.48 0  0.4 0.48 0  0.44 0.48 0  0.48 0.48 0  0.52 0.48 0  0.5600000000000001 0.48 0  0.6 0.48 0  0.64 0.48 0  0.68 0.48 0  0.72 0.48 0  0.76 0.48 0  0.8 0.48 0  0.84 0.48 0  0.88 0.48 0  0.92 0.48 0  0.96 0.48 0  1 0.48 0  0 0.52 0  0.04 0.52 0  0.08 0.52 0  0.12 0.52 0  0.16 0.52 0  0.2 0.52 0  0.24 0.52 0  0.28 0.52 0  0.32 0.52 0  0.36 0.52 0  0.4 0.52 0  0.44 0.52 0  0.48 0.52 0  0.52 0.52 0  0.5600000000000001 0.52 0  0.6 0.52 0  0.64 0.52 0  0.68 0.52 0  0.72 0.52 0  0.76 0.52 0  0.8 0.52 0  0.84 0.52 0  0.88 0.52 0  0.92 0.52 0  0.96 0.52 0  1 0.52 0  0 0.5600000000000001 0  0.04 0.5600000000000001 0  0.08 0.5600000000000001 0  0.12 0.5600000000000001 0  0.16 0.5600000000000001 0  0.2 0.5600000000000001 0  0.24 0.5600000000000001 0  0.28 0.5600000000000001 0  0.32 0.5600000000000001 0  0.36 0.5600000000000001 0  0.4 0.5600000000000001 0  0.44 0.5600000000000001 0  0.48 0.5600000000000001 0  0.52 0.5600000000000001 0  0.5600000000000001 0.5600000000000001 0  0.6 0.5600000000000001 0  0.64 0.5600000000000001 0  0.68 0.5600000000000001 0  0.72 0.5600000000000001 0  0.76 0.5600000000000001 0  0.8 0.5600000000000001 0  0.84 0.5600000000000001 0  0.88 0.5600000000000001 0  0.92 0.5600000000000001 0  0.96 0.5600000000000001 0  1 0.5600000000000001 0  0 0.6 0  0.04 0.6 0  0.08 0.6 0  0.12 0.6 0  0.16 0.6 0  0.2 0.6 0  0.24 0.6 0  0.28 0.6 0  0.32 0.6 0  0.36 0.6 0  0.4 0.6 0  0.44 0.6 0  0.48 0.6 0  0.52 0.6 0  0.5600000000000001 0.6 0  0.6 0.6 0  0.64 0.6 0  0.68 0.6 0  0.72 0.6 0  0.76 0.6 0  0.8 0.6 0  0.84 0.6 0  0.88 0.6 0  0.92 0.6 0  0.96 0.6 0  1 0.6 0  0 0.64 0  0.04 0.64 0  0.08 0.64 0  0.12 0.64 0  0.16 0.64 0  0.2 0.64 0  0.24 0.64 0  0.28 0.64 0  0.32 0.64 0  0.36 0.64 0  0.4 0.64 0  0.44 0.64 0  0.48 0.64 0  0.52 0.64 0  0.5600000000000001 0.64 0  0.6 0.64 0  0.64 0.64 0  0.68 0.64 0  0.72 0.64 0  0.76 0.64 0  0.8 0.64 0  0.84 0.64 0  0.88 0.64 0  0.92 0.64 0  0.96 0.64 0  1 0.64 0  0 0.68 0  0.04 0.68 0  0.08 0.68 0  0.12 0.68 0  0.16 0.68 0  0.2 0.68 0  0.24 0.68 0  0.28 0.68 0  0.32 0.68 0  0.36 0.68 0  0.4 0.68 0  0.44 0.68 0  0.48 0.68 0  0.52 0.68 0  0.5600000000000001 0.68 0  0.6 0.68 0  0.64 0.68 0  0.68 0.68 0  0.72 0.68 0  0.76 0.68 0  0.8 0.68 0  0.84 0.68 0  0.88 0.68 0  0.92 0.68 0  0.96 0.68 0  1 0.68 0  0 0.72 0  0.04 0.72 0  0.08 0.72 0  0.12 0.72 0  0.16 0.72 0  0.2 0.72 0  0.24 0.72 0  0.28 0.72 0  0.32 0.72 0  0.36 0.72 0  0.4 0.72 0  0.44 0.72 0  0.48 0.72 0  0.52 0.72 0  0.5600000000000001 0.72 0  0.6 0.72 0  0.64 0.72 0  0.68 0.72 0  0.72 0.72 0  0.76 0.72 0  0.8 0.72 0  0.84 0.72 0  0.88 0.72 0  0.92 0.72 0  0.96 0.72 0  1 0.72 0  0 0.76 0  0.04 0.76 0  0.08 0.76 0  0.12 0.76 0  0.16 0.76 0  0.2 0.76 0  0.24 0.76 0  0.28 0.76 0  0.32 0.76 0  0.36 0.76 0  0.4 0.76 0  0.44 0.76 0  0.48 0.76 0  0.52 0.76 0  0.5600000000000001 0.76 0  0.6 0.76 0  0.64 0.76 0  0.68 0.76 0  0.72 0.76 0  0.76 0.76 0  0.8 0.76 0  0.84 0.76 0  0.88 0.76 0  0.92 0.76 0  0.96 0.76 0  1 0.76 0  0 0.8 0  0.04 0.8 0  0.08 0.8 0  0.12 0.8 0  0.16 0.8 0  0.2 0.8 0  0.24 0.8 0  0.28 0.8 0  0.32 0.8 0  0.36 0.8 0  0.4 0.8 0  0.44 0.8 0  0.48 0.8 0  0.52 0.8 0  0.5600000000000001 0.8 0  0.6 0.8 0  0.64 0.8 0  0.68 0.8 0  0.72 0.8 0  0.76 0.8 0  0.8 0.8 0  0.84 0.8 0  0.88 0.8 0  0.92 0.8 0  0.96 0.8 0  1 0.8 0  0 0.84 0  0.04 0.84 0  0.08 0.84 0  0.12 0.84 0  0.16 0.84 0  0.2 0.84 0  0.24 0.84 0  0.28 0.84 0  0.32 0.84 0  0.36 0.84 0  0.4 0.84 0  0.44 0.84 0  0.48 0.84 0  0.52 0.84 0  0.5600000000000001 0.84 0  0.6 0.84 0  0.64 0.84 0  0.68 0.84 0  0.72 0.84 0  0.76 0.84 0  0.8 0.84 0  0.84 0.84 0  0.88 0.84 0  0.92 0.84 0  0.96 0.84 0  1 0.84 0  0 0.88 0  0.04 0.88 0  0.08 0.88 0  0.12 0.88 0  0.16 0.88 0  0.2 0.88 0  0.24 0.88 0  0.28 0.88 0  0.32 0.88 0  0.36 0.88 0  0.4 0.88 0  0.44 0.88 0  0.48 0.88 0  0.52 0.88 0  0.5600000000000001 0.88 0  0.6 0.88 0  0.64 0.88 0  0.68 0.88 0  0.72 0.88 0  0.76 0.88 0  0.8 0.88 0  0.84 0.88 0  0.88 0.88 0  0.92 0.88 0  0.96 0.88 0  1 0.88 0  0 0.92 0  0.04 0.92 0  0.08 0.92 0  0.12 0.92 0  0.16 0.92 0  0.2 0.92 0  0.24 0.92 0  0.28 0.92 0  0.32 0.92 0  0.36 0.92 0  0.4 0.92 0  0.44 0.92 0  0.48 0.92 0  0.52 0.92 0  0.5600000000000001 0.92 0  0.6 0.92 0  0.64 0.92 0  0.68 0.92 0  0.72 0.92 0  0.76 0.92 0  0.8 0.92 0  0.84 0.92 0  0.88 0.92 0  0.92 0.92 0  0.96 0.92 0  1 0.92 0  0 0.96 0  0.04 0.96 0  0.08 0.96 0  0.12 0.96 0  0.16 0.96 0  0.2 0.96 0  0.24 0.96 0  0.28 0.96 0  0.32 0.96 0  0.36 0.96 0  0.4 0.96 0  0.44 0.96 0  0.48 0.96 0  0.52 0.96 0  0.5600000000000001 0.96 0  0.6 0.96 0  0.64 0.96 0  0.68 0.96 0  0.72 0.96 0  0.76 0.96 0  0.8 0.96 0  0.84 0.96 0  0.88 0.96 0  0.92 0.96 0  0.96 0.96 0  1 0.96 0  0 1 0  0.04 1 0  0.08 1 0  0.12 1 0  0.16 1 0  0.2 1 0  0.24 1 0  0.28 1 0  0.32 1 0  0.36 1 0  0.4 1 0  0.44 1 0  0.48 1 0  0.52 1 0  0.5600000000000001 1 0  0.6 1 0  0.64 1 0  0.68 1 0  0.72 1 0  0.76 1 0  0.8 1 0  0.84 1 0  0.88 1 0  0.92 1 0  0.96 1 0  1 1 0  </DataArray>
</Points>
<Cells>
[...]
<PointData  Scalars="gamma"> 
<DataArray  type="Float64"  Name="gamma"  format="ascii">4.0116610853104171e+03  4.0143995487576544e+03  4.0166366393975495e+03  4.0179192865415635e+03  4.0178737120335536e+03  4.0163098979953070e+03  4.0132985587975177e+03  4.0091954842496461e+03  4.0046002991006694e+03  4.0002534210591489e+03  3.9968915862144386e+03  3.9950941260589784e+03  3.9951560243593458e+03  3.9970186798304144e+03  4.0002765382181810e+03  4.0042603134401506e+03  4.0081793000256453e+03  4.0112904459175720e+03  4.0130541686191773e+03  4.0132389492090160e+03  4.0119490487210237e+03  4.0095699791666652e+03  4.0066494248243221e+03  4.0037499733157965e+03  4.0013173732174282e+03  3.9996005198324174e+03  4.0141993206552083e+03  4.0174038983289752e+03  4.0199276340311626e+03  4.0212184368680719e+03  4.0208318629578921e+03  4.0185572075419536e+03  4.0145075451333014e+03  4.0091442866142547e+03  4.0032221722603485e+03  3.9976608698360919e+03  3.9933687960845491e+03  3.9910580813792089e+03  3.9910932856803893e+03  3.9934097748348959e+03  3.9975223544694541e+03  4.0026243645759032e+03  4.0077563780716941e+03  4.0120065782513166e+03  4.0146960969445186e+03  4.0155050874365174e+03  4.0145096696673513e+03  4.0121233642291249e+03  4.0089630841380704e+03  4.0056809464998310e+03  4.0028114486607446e+03  4.0006752078183804e+03  4.0162804084673826e+03  4.0197952951918742e+03  4.0224425935143304e+03  4.0235890426192996e+03  4.0227390609720892e+03  4.0196780106913470e+03  4.0145707247026680e+03  4.0079830035507011e+03  4.0008121092341030e+03  3.9941353836472849e+03  3.9890075089056436e+03  3.9862508370368828e+03  3.9862861988503169e+03  3.9890432465322310e+03  3.9939719694340088e+03  4.0001545222952063e+03  4.0064936608525791e+03  4.0119358150454300e+03  4.0156776801042452e+03  4.0173083257786925e+03  4.0168546694215511e+03  4.0147235111768341e+03  4.0115614313508863e+03  4.0080760232435200e+03  4.0048704700723656e+03  4.0023349150821664e+03  4.0175541653703954e+03  4.0211616834747883e+03  4.0237331267840818e+03  4.0245855236972052e+03  4.0232015740344132e+03  4.0193828103126484e+03  4.0133502898369525e+03  4.0057596264773915e+03  3.9976178658495210e+03  3.9901145700111579e+03  3.9844015581095227e+03  3.9813692413515846e+03  3.9814692498936211e+03  3.9846231362750414e+03  3.9902380816703935e+03  3.9973270113285271e+03  4.0047072391172223e+03  4.0112336676056561e+03  4.0160141221712161e+03  4.0185584914492870e+03  4.0188299906612697e+03  4.0171923691559673e+03  4.0142743196425135e+03  4.0107934188371228e+03  4.0073897618639703e+03  4.0045113559073188e+03  4.0177378758271143e+03  4.0211891318284725e+03  4.0234843455770297e+03  4.0239328609191821e+03  4.0220310534775626e+03  4.0176161824379542e+03  4.0109622293947446e+03  4.0027857682150070e+03  3.9941520206947480e+03  3.9862965352532342e+03  3.9803993575389823e+03  3.9773606671670591e+03  3.9776270121516313e+03  3.9811060391960009e+03  3.9871880708684948e+03  3.9948694888440195e+03  4.0029505722167178e+03  4.0102640114739734e+03  4.0158837912457006e+03  4.0192696780785986e+03  4.0203193407747372e+03  4.0193239743519653e+03  4.0168475646324819e+03  4.0135675923585677e+03  4.0101209434949974e+03  4.0069916953238421e+03  4.0166749599966383e+03  4.0197290899741415e+03  4.0215852256464814e+03  4.0215920485849201e+03  4.0192952761410388e+03  4.0145824758536933e+03  4.0077676761351736e+03  3.9995869031503298e+03  3.9910981056183073e+03  3.9835032952168958e+03  3.9779303698408562e+03  3.9752220952296389e+03  3.9757780930058816e+03  3.9794834380475727e+03  3.9857379420341977e+03  3.9935779735967585e+03  4.0018626276077994e+03  4.0094826875373546e+03  4.0155473839478054e+03  4.0195114435037308e+03  4.0212213419628456e+03  4.0208802874089829e+03  4.0189503374306064e+03  4.0160221851598226e+03  4.0126860437020009e+03  4.0094311762072084e+03  4.0143733148854199e+03  4.0168374054866222e+03  4.0181620991488489e+03  4.0177802622442118e+03  4.0153164809924788e+03  4.0107142397167686e+03  4.0043049102539567e+03  3.9967939069083036e+03  3.9891606780903758e+03  3.9824916039137570e+03  3.9777820232031549e+03  3.9757512136260812e+03  3.9767107574746801e+03  3.9805137639601235e+03  3.9865934577793355e+03  3.9940793777765184e+03  4.0019626792975878e+03  4.0092728172995794e+03  4.0152284262103376e+03  4.0193350260228613e+03  4.0214178767888875e+03  4.0215946251517348e+03  4.0202043771178846e+03  4.0177149329047629e+03  4.0146287179629312e+03  4.0114030815990172e+03  4.0110157031424255e+03  4.0127781994152488e+03  4.0135708543053152e+03  4.0129459129359243e+03  4.0106242867510950e+03  4.0065991878485520e+03  4.0011881555930345e+03  3.9950131758745624e+03  3.9889078277563776e+03  3.9837702758302626e+03  3.9803955115469066e+03  3.9793255971804947e+03  3.9807517274461065e+03  3.9844884732830783e+03  3.9900224813350819e+03  3.9966200589342775e+03  4.0034652209116225e+03  4.0097953328014246e+03  4.0150064432913973e+03  4.0187126515884579e+03  4.0207586184528232e+03  4.0211959516182355e+03  4.0202388033046636e+03  4.0182115440907464e+03  4.0154954888953307e+03  4.0124772471107772e+03  4.0069391780918154e+03  4.0079915426104876e+03  4.0083502867652196e+03  4.0077061727672194e+03  4.0058773947005589e+03  4.0028876289767850e+03  3.9990034422374656e+03  3.9947140861883063e+03  3.9906531207066391e+03  3.9874787330262034e+03  3.9857422025494320e+03  3.9857777027554298e+03  3.9876405728995010e+03  3.9911074289647354e+03  3.9957343176660256e+03  4.0009537597512985e+03  4.0061826573417516e+03  4.0109133879335582e+03  4.0147696560270920e+03  4.0175231607730120e+03  4.0190809058740542e+03  4.0194601760016571e+03  4.0187660151282626e+03  4.0171765465434005e+03  4.0149309272209935e+03  4.0123100148827657e+03  4.0025848454689708e+03  4.0030283108521753e+03  4.0031428527142966e+03  4.0027567283354369e+03  4.0017676852648874e+03  4.0001978459672905e+03  3.9982226722540177e+03  3.9961582732449838e+03  3.9944045561272183e+03  3.9933573159364500e+03  3.9933140942181417e+03  3.9944018823612560e+03  3.9965482646614764e+03  3.9995037323310712e+03  4.0029065062383074e+03  4.0063679529609681e+03  4.0095512355206147e+03  4.0122202738442347e+03  4.0142488850506029e+03  4.0155961879534921e+03  4.0162672209316447e+03  4.0162814144163617e+03  4.0156641501346148e+03  4.0144617064562249e+03  4.0127653906262535e+03  4.0107248585856996e+03  3.9984240427462196e+03  3.9984600517043273e+03  3.9985921835229037e+03  3.9987640638319863e+03  3.9989170501554472e+03  3.9990287470060002e+03  3.9991432168626066e+03  3.9993754070519853e+03  3.9998823549213716e+03  4.0008085641295365e+03  4.0022254569027600e+03  4.0040891201698423e+03  4.0062347109321204e+03  4.0084122857773564e+03  4.0103529024711761e+03  4.0118418411263024e+03  4.0127725057761813e+03  4.0131616089411682e+03  4.0131212502065200e+03  4.0128007112145347e+03  4.0123230457052168e+03  4.0117432058334762e+03  4.0110441625748331e+03  4.0101694894729194e+03  4.0090737336214211e+03  4.0077644089375462e+03  3.9948725178375594e+03  3.9947771008929262e+03  3.9952311058917185e+03  3.9962528647643430e+03  3.9977764219264191e+03  3.9996841292102140e+03  4.0018505856084380e+03  4.0041751049244658e+03  4.0065869362816838e+03  4.0090228484335917e+03  4.0113919476758851e+03  4.0135499593623331e+03  4.0153014272849764e+03  4.0164355373658714e+03  4.0167854461150732e+03  4.0162889478950719e+03  4.0150252153426086e+03  4.0132098005163102e+03  4.0111454808433523e+03  4.0091438896366817e+03  4.0074450364642667e+03  4.0061633627077595e+03  4.0052786582656308e+03  4.0046719753746966e+03  4.0041885998820585e+03  4.0037006376989330e+03  3.9922092584648144e+03  3.9922935977128936e+03  3.9933791226374633e+03  3.9955055126147372e+03  3.9985393620881100e+03  4.0022136922243676e+03  4.0061998163244461e+03  4.0101794939339470e+03  4.0138895984583537e+03  4.0171288816630827e+03  4.0197366153300741e+03  4.0215656231979797e+03  4.0224723178320605e+03  4.0223352477623434e+03  4.0210974652577006e+03  4.0188142802788780e+03  4.0156825617211293e+03  4.0120329096572186e+03  4.0082796672682343e+03  4.0048403420184445e+03  4.0020487639216226e+03  4.0000898712768485e+03  3.9989766915742093e+03  3.9985746937690324e+03  3.9986615882516585e+03  3.9989991149488224e+03  3.9905190991392437e+03  3.9910810058933630e+03  3.9930717194082113e+03  3.9964944707295253e+03  4.0010867573014848e+03  4.0063803447196419e+03  4.0118155805036336e+03  4.0168647952982601e+03  4.0211212787361742e+03  4.0243310301996457e+03  4.0263719126425876e+03  4.0272054750661646e+03  4.0268326740739221e+03  4.0252760959261263e+03  4.0225941641148520e+03  4.0189155422744020e+03  4.0144715570115109e+03  4.0096045014864885e+03  4.0047393692817122e+03  4.0003215065144668e+03  3.9967367147177588e+03  3.9942380382374408e+03  3.9929020719308196e+03  3.9926278992154193e+03  3.9931775450577893e+03  3.9942435175783453e+03  3.9896761082392345e+03  3.9909497174991966e+03  3.9940423863534320e+03  3.9988679908330214e+03  4.0049804608513391e+03  4.0116667352322283e+03  4.0181167317567424e+03  4.0236083954088285e+03  4.0276450441021370e+03  4.0300075336366253e+03  4.0307206557340392e+03  4.0299642358816095e+03  4.0279731350833890e+03  4.0249649083716336e+03  4.0211151767602710e+03  4.0165781935421205e+03  4.0115322973301531e+03  4.0062223445767863e+03  4.0009749632827234e+03  3.9961748427213365e+03  3.9922060919807291e+03  3.9893763144576833e+03  3.9878481058879233e+03  3.9876011401616493e+03  3.9884384032715047e+03  3.9900355336412758e+03  3.9893772388937991e+03  3.9914900767903987e+03  3.9957700742796706e+03  4.0020024658785696e+03  4.0095187436105530e+03  4.0173320991634987e+03  4.0243731625863193e+03  4.0297446161915941e+03  4.0329097197947108e+03  4.0337606375718074e+03  4.0325607427414207e+03  4.0297987183540786e+03  4.0260153176588660e+03  4.0216617583302673e+03  4.0170277289621149e+03  4.0122476749875568e+03  4.0073670961072089e+03  4.0024335946665688e+03  3.9975737290857578e+03  3.9930256584488052e+03  3.9891152429710237e+03  3.9861839329990271e+03  3.9844941714029555e+03  3.9841466597852009e+03  3.9850403478628614e+03  3.9868907635753985e+03  3.9892237028904260e+03  3.9921704585769094e+03  3.9975903454964823e+03  4.0051207567350266e+03  4.0138542617376706e+03  4.0225216041692702e+03  4.0297984960085628e+03  4.0346337828404985e+03  4.0364900558940321e+03  4.0354247238688317e+03  4.0320005273760571e+03  4.0270721676318549e+03  4.0215289717767141e+03  4.0160752027656017e+03  4.0111056815838788e+03  4.0066975024111093e+03  4.0027017745604544e+03  3.9988922074427164e+03  3.9951154208098133e+03  3.9913925683152611e+03  3.9879410069670089e+03  3.9851127813394673e+03  3.9832754084377134e+03  3.9826805290183220e+03  3.9833697474708679e+03  3.9851518576155486e+03  3.9888335248673789e+03  3.9924736450084033e+03  3.9988505287301855e+03  4.0074574968694606e+03  4.0171579852627297e+03  4.0264157132841797e+03  4.0336715848470940e+03  4.0377440828603681e+03  4.0381201977161445e+03  4.0350468855426197e+03  4.0294069727112583e+03  4.0224355115572766e+03  4.0153761234074191e+03  4.0091818385903894e+03  4.0043377053981139e+03  4.0008379296192534e+03  3.9983038671044492e+03  3.9961922985488059e+03  3.9940231803414890e+03  3.9915559658625098e+03  3.9888634019210376e+03  3.9862865607976278e+03  3.9842948757066210e+03  3.9833068914885125e+03  3.9835390972896175e+03  3.9849359875309024e+03  3.9879565977664865e+03  3.9920381489766360e+03  3.9990726592725382e+03  4.0084347940908215e+03  4.0187950461516361e+03  4.0283910122561397e+03  4.0354664379318697e+03  4.0387361978868162e+03  4.0377223241974057e+03  4.0328543883357261e+03  4.0253133305671863e+03  4.0166832498302629e+03  4.0085286366318737e+03  4.0020223585344238e+03  3.9977193373748928e+03  3.9955195698115094e+03  3.9948094336355930e+03  3.9947248436848918e+03  3.9944519672928036e+03  3.9934760772947261e+03  3.9917086045060087e+03  3.9894628324452929e+03  3.9872988618079689e+03  3.9858016578391953e+03  3.9853755672472371e+03  3.9861261020196057e+03  3.9865578257553152e+03  3.9907637889540069e+03  3.9980790771661259e+03  4.0078015421989599e+03  4.0184674636983150e+03  4.0281528319109721e+03  4.0349596838244315e+03  4.0375313812469435e+03  4.0354245276007036e+03  4.0292171636976491e+03  4.0203279566774240e+03  4.0106172107655266e+03  4.0019011723094063e+03  3.9955213387421832e+03  3.9920777979663508e+03  3.9913792750908101e+03  3.9926017006516081e+03  3.9945952301555908e+03  3.9962454874588229e+03  3.9967848926483703e+03  3.9959681758823167e+03  3.9940702705436020e+03  3.9917230127300136e+03  3.9896597648513643e+03  3.9884638367260832e+03  3.9884061889831983e+03  3.9848386061315509e+03  3.9888456240316000e+03  3.9960399408419116e+03  4.0056929458762170e+03  4.0162806330846847e+03  4.0258001724591973e+03  4.0322829799880278e+03  4.0343400174062135e+03  4.0315563525459161e+03  4.0246056539797305e+03  4.0150557218266786e+03  4.0049388800409533e+03  3.9962267796283090e+03  3.9903614064668591e+03  3.9879605290696031e+03  3.9887568334620046e+03  3.9917656244272844e+03  3.9956199857845163e+03  3.9989736358256878e+03  4.0008578069088203e+03  4.0008948501603300e+03  3.9993169966353444e+03  3.9968020322730385e+03  3.9941970538655319e+03  3.9922338864839653e+03  3.9913318853710330e+03  3.9831834104910463e+03  3.9867191612996039e+03  3.9934218781859227e+03  4.0025865532877338e+03  4.0127083770036079e+03  4.0217982370383256e+03  4.0278984532221025e+03  4.0296336216455734e+03  4.0266112817395801e+03  4.0195401255094766e+03  4.0100344246878817e+03  4.0001775780083149e+03  3.9919852722707319e+03  3.9869225824202213e+03  3.9855967198376302e+03  3.9876883522535645e+03  3.9921194617572728e+03  3.9973982267760275e+03  4.0020403888812448e+03  4.0049499142460668e+03  4.0056560109692168e+03  4.0043488364730747e+03  4.0017211741466053e+03  3.9986859172824479e+03  3.9960750787557827e+03  3.9944207668980248e+03  3.9820432858084246e+03  3.9849287891947001e+03  3.9908485761359566e+03  3.9991632598382207e+03  4.0084619474111155e+03  4.0168608319846107e+03  4.0224969382701929e+03  4.0240586294327486e+03  4.0211741831734712e+03  4.0145298136853244e+03  4.0056849751990480e+03  3.9966530864227807e+03  3.9893817889316797e+03  3.9852817281851876e+03  3.9849229911620305e+03  3.9879626250778442e+03  3.9933040420711950e+03  3.9994327798741028e+03  4.0048319689000123e+03  4.0083629916479308e+03  4.0095090079882089e+03  4.0084218991298098e+03  4.0057761706918559e+03  4.0024951717474064e+03  3.9994517682560099e+03  3.9972426861143240e+03  3.9817930131025055e+03  3.9839606201639740e+03  3.9889164221314413e+03  3.9961153884694031e+03  4.0043012740266104e+03  4.0117749944957291e+03  4.0168443151278816e+03  4.0183101011810031e+03  4.0158252688204152e+03  4.0100077399108541e+03  4.0022762019750812e+03  3.9944689346444034e+03  3.9883670169637753e+03  3.9852584176741907e+03  3.9856538053480381e+03  3.9892147791299644e+03  3.9948976118787232e+03  4.0012629059645592e+03  4.0068625501836168e+03  4.0105978310738342e+03  4.0119528829544565e+03  4.0110465090969956e+03  4.0085032176503964e+03  4.0052017551209524e+03  4.0019945658645661e+03  3.9994906002504363e+03  3.9826119463589707e+03  3.9840971338351806e+03  3.9880270488594701e+03  3.9939644781891284e+03  4.0008480026687589e+03  4.0072208746911656e+03  4.0116199806149580e+03  4.0129991139871204e+03  4.0110439375212281e+03  4.0062748523409541e+03  3.9999092636217492e+03  3.9935336687580652e+03  3.9886894759467223e+03  3.9864910852458775e+03  3.9873740587951329e+03  3.9910284211654966e+03  3.9965216809565500e+03  4.0025692569471457e+03  4.0078749777746875e+03  4.0114484076387885e+03  4.0128144262107248e+03  4.0120640861633397e+03  4.0097459616963224e+03  4.0066474309942587e+03  4.0035467465196775e+03  4.0010171037621653e+03  3.9844317530683356e+03  3.9853444824245498e+03  3.9882932190967349e+03  3.9929478751503698e+03  3.9984586623245236e+03  4.0036409951179062e+03  4.0072943206832865e+03  4.0085512295685398e+03  4.0071392525147849e+03  4.0034695098274074e+03  3.9985277138286992e+03  3.9936074484226097e+03  3.9899699205790776e+03  3.9885275734052852e+03  3.9896332607092659e+03  3.9930221111841302e+03  3.9979112996636986e+03  4.0032233566080022e+03  4.0078689778607136e+03  4.0110118510167367e+03  4.0122451551047775e+03  4.0116370242685598e+03  4.0096434385093480e+03  4.0069283539876851e+03  4.0041571949045438e+03  4.0018309821148823e+03  </DataArray> 
</PointData> 
</Piece>
</UnstructuredGrid>
</VTKFile>