<?xml version="1.0"?>
<VTKFile type="UnstructuredGrid"  version="0.1"  >
<UnstructuredGrid>
<Piece  NumberOfPoints="676" NumberOfCells="1250">
<Points>
<DataArray  type="Float64"  NumberOfComponents="3"  format="ascii">0 0 0  0.04 0 0  0.08 0 0  0.12 0 0  0.16 0 0  0.2 0 0  0.24 0 0  0.28 0 0  0.32 0 0  0.36 0 0  0.4 0 0  0.44 0 0  0.48 0 0  0.52 0 0  0.5600000000000001 0 0  0.6 0 0  0.64 0 0  0.68 0 0  0.72 0 0  0.76 0 0  0.8 0 0  0.84 0 0  0.88 0 0  0.92 0 0  0.96 0 0  1 0 0  0 0.04 0  0.04 0.04 0  0.08 0.04 0  0.12 0.04 0  0.16 0.04 0  0.2 0.04 0  0.24 0.04 0  0.28 0.04 0  0.32 0.04 0  0.36 0.04 0  0.4 0.04 0  0.44 0.04 0  0.48 0.04 0  0.52 0.04 0  0.5600000000000001 0.04 0  0.6 0.04 0  0.64 0.04 0  0.68 0.04 0  0.72 0.04 0  0.76 0.04 0  0.8 0.04 0  0.84 0.04 0  0.88 0.04 0  0.92 0.04 0  0.96 0.04 0  1 0.04 0  0 0.08 0  0.04 0.08 0  0.08 0.08 0  0.12 0.08 0  0.16 0.08 0  0.2 0.08 0  0.24 0.08 0  0.28 0.08 0  0.32 0.08 0  0.36 0.08 0  0.4 0.08 0  0.44 0.08 0  0.48 0.08 0  0.52 0.08 0  0.5600000000000001 0.08 0  0.6 0.08 0  0.64 0.08 0  0.68 0.08 0  0.72 0.08 0  0.76 0.08 0  0.8 0.08 0  0.84 0.08 0  0.88 0.08 0  0.92 0.08 0  0.96 0.08 0  1 0.08 0  0 0.12 0  0.04 0.12 0  0.08 0.12 0  0.12 0.12 0  0.16 0.12 0  0.2 0.12 0  0.24 0.12 0  0.28 0.12 0  0.32 0.12 0  0.36 0.12 0  0.4 0.12 0  0.44 0.12 0  0.48 0.12 0  0.52 0.12 0  0.5600000000000001 0.12 0  0.6 0.12 0  0.64 0.12 0  0.68 0.12 0  0.72 0.12 0  0.76 0.12 0  0.8 0.12 0  0.84 0.12 0  0.88 0.12 0  0.92 0.12 0  0.96 0.12 0  1 0.12 0  0 0.16 0  0.04 0.16 0  0.08 0.16 0  0.12 0.16 0  0.16 0.16 0  0.2 0.16 0  0.24 0.16 0  0.28 0.16 0  0.32 0.16 0  0.36 0.16 0  0.4 0.16 0  0.44 0.16 0  0.48 0.16 0  0.52 0.16 0  0.5600000000000001 0.16 0  0.6 0.16 0  0.64 0.16 0  0.68 0.16 0  0.72 0.16 0  0.76 0.16 0  0.8 0.16 0  0.84 0.16 0  0.88 0.16 0  0.92 0.16 0  0.96 0.16 0  1 0.16 0  0 0.2 0  0.04 0.2 0  0.08 0.2 0  0.12 0.2 0  0.16 0.2 0  0.2 0.2 0  0.24 0.2 0  0.28 0.2 0  0.32 0.2 0  0.36 0.2 0  0.4 0.2 0  0.44 0.2 0  0.48 0.2 0  0.52 0.2 0  0.5600000000000001 0.2 0  0.6 0.2 0  0.64 0.2 0  0.68 0.2 0  0.72 0.2 0  0.76 0.2 0  0.8 0.2 0  0.84 0.2 0  0.88 0.2 0  0.92 0.2 0  0.96 0.2 0  1 0.2 0  0 0.24 0  0.04 0.24 0  0.08 0.24 0  0.12 0.24 0  0.16 0.24 0  0.2 0.24 0  0.24 0.24 0  0.28 0.24 0  0.32 0.24 0  0.36 0.24 0  0.4 0.24 0  0.44 0.24 0  0.48 0.24 0  0.52 0.24 0  0.5600000000000001 0.24 0  0.6 0.24 0  0.64 0.24 0  0.68 0.24 0  0.72 0.24 0  0.76 0.24 0  0.8 0.24 0  0.84 0.24 0  0.88 0.24 0  0.92 0.24 0  0.96 0.24 0  1 0.24 0  0 0.28 0  0.04 0.28 0  0.08 0.28 0  0.12 0.28 0  0.16 0.28 0  0.2 0.28 0  0.24 0.28 0  0.28 0.28 0  0.32 0.28 0  0.36 0.28 0  0.4 0.28 0  0.44 0.28 0  0.48 0.28 0  0.52 0.28 0  0.5600000000000001 0.28 0  0.6 0.28 0  0.64 0.28 0  0.68 0.28 0  0.72 0.28 0  0.76 0.28 0  0.8 0.28 0  0.84 0.28 0  0.88 0.28 0  0.92 0.28 0  0.96 0.28 0  1 0.28 0  0 0.32 0  0.04 0.32 0  0.08 0.32 0  0.12 0.32 0  0.16 0.32 0  0.2 0.32 0  0.24 0.32 0  0.28 0.32 0  0.32 0.32 0  0.36 0.32 0  0.4 0.32 0  0.44 0.32 0  0.48 0.32 0  0.52 0.32 0  0.5600000000000001 0.32 0  0.6 0.32 0  0.64 0.32 0  0.68 0.32 0  0.72 0.32 0  0.76 0.32 0  0.8 0.32 0  0.84 0.32 0  0.88 0.32 0  0.92 0.32 0  0.96 0.32 0  1 0.32 0  0 0.36 0  0.04 0.36 0  0.08 0.36 0  0.12 0.36 0  0.16 0.36 0  0.2 0.36 0  0.24 0.36 0  0.28 0.36 0  0.32 0.36 0  0.36 0.36 0  0.4 0.36 0  0.44 0.36 0  0.48 0.36 0  0.52 0.36 0  0.5600000000000001 0.36 0  0.6 0.36 0  0.64 0.36 0  0.68 0.36 0  0.72 0.36 0  0.76 0.36 0  0.8 0.36 0  0.84 0.36 0  0.88 0.36 0  0.92 0.36 0  0.96 0.36 0  1 0.36 0  0 0.4 0  0.04 0.4 0  0.08 0.4 0  0.12 0.4 0  0.16 0.4 0  0.2 0.4 0  0.24 0.4 0  0.28 0.4 0  0.32 0.4 0  0.36 0.4 0  0.4 0.4 0  0.44 0.4 0  0.48 0.4 0  0.52 0.4 0  0.5600000000000001 0.4 0  0.6 0.4 0  0.64 0.4 0  0.68 0.4 0  0.72 0.4 0  0.76 0.4 0  0.8 0.4 0  0.84 0.4 0  0.88 0.4 0  0.92 0.4 0  0.96 0.4 0  1 0.4 0  0 0.44 0  0.04 0.44 0  0.08 0.44 0  0.12 0.44 0  0.16 0.44 0  0.2 0.44 0  0.24 0.44 0  0.28 0.44 0  0.32 0.44 0  0.36 0.44 0  0.4 0.44 0  0.44 0.44 0  0.48 0.44 0  0.52 0.44 0  0.5600000000000001 0.44 0  0.6 0.44 0  0.64 0.44 0  0.68 0.44 0  0.72 0.44 0  0.76 0.44 0  0.8 0.44 0  0.84 0.44 0  0.88 0.44 0  0.92 0.44 0  0.96 0.44 0  1 0.44 0  0 0.48 0  0.04 0.48 0  0.08 0.48 0  0.12 0.48 0  0.16 0.48 0  0.2 0.48 0  0.24 0.48 0  0.28 0.48 0  0.32 0.48 0  0.36 0.48 0  0.4 0.48 0  0.44 0.48 0  0.48 0.48 0  0.52 0.48 0  0.5600000000000001 0.48 0  0.6 0.48 0  0.64 0.48 0  0.68 0.48 0  0.72 0.48 0  0.76 0.48 0  0.8 0.48 0  0.84 0.48 0  0.88 0.48 0  0.92 0.48 0  0.96 0.48 0  1 0.48 0  0 0.52 0  0.04 0.52 0  0.08 0.52 0  0.12 0.52 0  0.16 0.52 0  0.2 0.52 0  0.24 0.52 0  0.28 0.52 0  0.32 0.52 0  0.36 0.52 0  0.4 0.52 0  0.44 0.52 0  0.48 0.52 0  0.52 0.52 0  0.5600000000000001 0.52 0  0.6 0.52 0  0.64 0.52 0  0.68 0.52 0  0.72 0.52 0  0.76 0.52 0  0.8 0.52 0  0.84 0.52 0  0.88 0.52 0  0.92 0.52 0  0.96 0.52 0  1 0.52 0  0 0.5600000000000001 0  0.04 0.5600000000000001 0  0.08 0.5600000000000001 0  0.12 0.5600000000000001 0  0.16 0.5600000000000001 0  0.2 0.5600000000000001 0  0.24 0.5600000000000001 0  0.28 0.5600000000000001 0  0.32 0.5600000000000001 0  0.36 0.5600000000000001 0  0.4 0.5600000000000001 0  0.44 0.5600000000000001 0  0.48 0.5600000000000001 0  0.52 0.5600000000000001 0  0.5600000000000001 0.5600000000000001 0  0.6 0.5600000000000001 0  0.64 0.5600000000000001 0  0.68 0.5600000000000001 0  0.72 0.5600000000000001 0  0.76 0.5600000000000001 0  0.8 0.5600000000000001 0  0.84 0.5600000000000001 0  0.88 0.5600000000000001 0  0.92 0.5600000000000001 0  0.96 0.5600000000000001 0  1 0.5600000000000001 0  0 0.6 0  0.04 0.6 0  0.08 0.6 0  0.12 0.6 0  0.16 0.6 0  0.2 0.6 0  0.24 0.6 0  0.28 0.6 0  0.32 0.6 0  0.36 0.6 0  0.4 0.6 0  0.44 0.6 0  0.48 0.6 0  0.52 0.6 0  0.5600000000000001 0.6 0  0.6 0.6 0  0.64 0.6 0  0.68 0.6 0  0.72 0.6 0  0.76 0.6 0  0.8 0.6 0  0.84 0.6 0  0.88 0.6 0  0.92 0.6 0  0.96 0.6 0  1 0.6 0  0 0.64 0  0.04 0.64 0  0.08 0.64 0  0.12 0.64 0  0.16 0.64 0  0.2 0.64 0  0.24 0.64 0  0.28 0.64 0  0.32 0.64 0  0.36 0.64 0  0.4 0.64 0  0.44 0.64 0  0.48 0.64 0  0.52 0.64 0  0.5600000000000001 0.64 0  0.6 0.64 0  0.64 0.64 0  0.68 0.64 0  0.72 0.64 0  0.76 0.64 0  0.8 0.64 0  0.84 0.64 0  0.88 0.64 0  0.92 0.64 0  0.96 0.64 0  1 0.64 0  0 0.68 0  0.04 0.68 0  0.08 0.68 0  0.12 0.68 0  0.16 0.68 0  0.2 0.68 0  0.24 0.68 0  0.28 0.68 0  0.32 0.68 0  0.36 0.68 0  0.4 0.68 0  0.44 0.68 0  0.48 0.68 0  0.52 0.68 0  0.5600000000000001 0.68 0  0.6 0.68 0  0.64 0.68 0  0.68 0.68 0  0.72 0.68 0  0.76 0.68 0  0.8 0.68 0  0.84 0.68 0  0.88 0.68 0  0.92 0.68 0  0.96 0.68 0  1 0.68 0  0 0.72 0  0.04 0.72 0  0.08 0.72 0  0.12 0.72 0  0.16 0.72 0  0.2 0.72 0  0.24 0.72 0  0.28 0.72 0  0.32 0.72 0  0.36 0.72 0  0.4 0.72 0  0.44 0.72 0  0.48 0.72 0  0.52 0.72 0  0.5600000000000001 0.72 0  0.6 0.72 0  0.64 0.72 0  0.68 0.72 0  0.72 0.72 0  0.76 0.72 0  0.8 0.72 0  0.84 0.72 0  0.88 0.72 0  0.92 0.72 0  0.96 0.72 0  1 0.72 0  0 0.76 0  0.04 0.76 0  0.08 0.76 0  0.12 0.76 0  0.16 0.76 0  0.2 0.76 0  0.24 0.76 0  0.28 0.76 0  0.32 0.76 0  0.36 0.76 0  0.4 0.76 0  0.44 0.76 0  0.48 0.76 0  0.52 0.76 0  0.5600000000000001 0.76 0  0.6 0.76 0  0.64 0.76 0  0.68 0.76 0  0.72 0.76 0  0.76 0.76 0  0.8 0.76 0  0.84 0.76 0  0.88 0.76 0  0.92 0.76 0  0.96 0.76 0  1 0.76 0  0 0.8 0  0.04 0.8 0  0.08 0.8 0  0.12 0.8 0  0.16 0.8 0  0.2 0.8 0  0.24 0.8 0  0.28 0.8 0  0.32 0.8 0  0.36 0.8 0  0.4 0.8 0  0.44 0.8 0  0.48 0.8 0  0.52 0.8 0  0.5600000000000001 0.8 0  0.6 0.8 0  0.64 0.8 0  0.68 0.8 0  0.72 0.8 0  0.76 0.8 0  0.8 0.8 0  0.84 0.8 0  0.88 0.8 0  0.92 0.8 0  0.96 0.8 0  1 0.8 0  0 0.84 0  0.04 0.84 0  0.08 0.84 0  0.12 0.84 0  0.16 0.84 0  0.2 0.84 0  0.24 0.84 0  0.28 0.84 0  0.32 0.84 0  0.36 0.84 0  0.4 0.84 0  0.44 0.84 0  0.48 0.84 0  0.52 0.84 0  0.5600000000000001 0.84 0  0.6 0.84 0  0.64 0.84 0  0.68 0.84 0  0.72 0.84 0  0.76 0.84 0  0.8 0.84 0  0.84 0.84 0  0.88 0.84 0  0.92 0.84 0  0.96 0.84 0  1 0.84 0  0 0.88 0  0.04 0.88 0  0.08 0.88 0  0.12 0.88 0  0.16 0.88 0  0.2 0.88 0  0.24 0.88 0  0.28 0.88 0  0.32 0.88 0  0.36 0.88 0  0.4 0.88 0  0.44 0.88 0  0.48 0.88 0  0.52 0.88 0  0.5600000000000001 0.88 0  0.6 0.88 0  0.64 0.88 0  0.68 0.88 0  0.72 0.88 0  0.76 0.88 0  0.8 0.88 0  0.84 0.88 0  0.88 0.88 0  0.92 0.88 0  0.96 0.88 0  1 0.88 0  0 0.92 0  0.04 0.92 0  0.08 0.92 0  0.12 0.92 0  0.16 0.92 0  0.2 0.92 0  0.24 0.92 0  0.28 0.92 0  0.32 0.92 0  0.36 0.92 0  0.4 0.92 0  0.44 0.92 0  0.48 0.92 0  0.52 0.92 0  0.5600000000000001 0.92 0  0.6 0.92 0  0.64 0.92 0  0.68 0.92 0  0.72 0.92 0  0.76 0.92 0  0.8 0.92 0  0.84 0.92 0  0.88 0.92 0  0.92 0.92 0  0.96 0.92 0  1 0.92 0  0 0.96 0  0.04 0.96 0  0.08 0.96 0  0.12 0.96 0  0.16 0.96 0  0.2 0.96 0  0.24 0.96 0  0.28 0.96 0  0.32 0.96 0  0.36 0.96 0  0.4 0.96 0  0.44 0.96 0  0.48 0.96 0  0.52 0.96 0  0.5600000000000001 0.96 0  0.6 0.96 0  0.64 0.96 0  0.68 0.96 0  0.72 0.96 0  0.76 0.96 0  0.8 0.96 0  0.84 0.96 0  0.88 0.96 0  0.92 0.96 0  0.96 0.96 0  1 0.96 0  0 1 0  0.04 1 0  0.08 1 0  0.12 1 0  0.16 1 0  0.2 1 0  0.24 1 0  0.28 1 0  0.32 1 0  0.36 1 0  0.4 1 0  0.44 1 0  0.48 1 0  0.52 1 0  0.5600000000000001 1 0  0.6 1 0  0.64 1 0  0.68 1 0  0.72 1 0  0.76 1 0  0.8 1 0  0.84 1 0  0.88 1 0  0.92 1 0  0.96 1 0  1 1 0  </DataArray>
</Points>
<Cells>
[...]
<PointData  Scalars="gamma"> 
<DataArray  type="Float64"  Name="gamma"  format="ascii">3.9736168732646415e+03  3.9705818099827752e+03  3.9692938866881245e+03  3.9699113015021353e+03  3.9721880014926801e+03  3.9755496616466144e+03  3.9792717594869105e+03  3.9826902524488432e+03  3.9853676714264561e+03  3.9871620165119261e+03  3.9881877962099898e+03  3.9886982866681956e+03  3.9889412205311069e+03  3.9890420017532820e+03  3.9889529039414238e+03  3.9884814562760357e+03  3.9873847291069465e+03  3.9854953821822055e+03  3.9828349196364334e+03  3.9796721664464471e+03  3.9765005906852221e+03  3.9739336914486948e+03  3.9725465579770257e+03  3.9727140756151489e+03  3.9745019837581208e+03  3.9776506446789194e+03  3.9704894462222146e+03  3.9673909835877353e+03  3.9663386035779654e+03  3.9674518215383878e+03  3.9703720441980049e+03  3.9743675716772868e+03  3.9785587054613461e+03  3.9821767931418531e+03  3.9847625294298932e+03  3.9862397651935321e+03  3.9868534236103478e+03  3.9870096300270861e+03  3.9870847640384573e+03  3.9872719878077296e+03  3.9875137144641571e+03  3.9875365542166537e+03  3.9869720258456969e+03  3.9855202330545426e+03  3.9831006442910420e+03  3.9799372148135299e+03  3.9765443007824188e+03  3.9736111190303168e+03  3.9718174722231270e+03  3.9716402790494358e+03  3.9732174624049089e+03  3.9763170799976956e+03  3.9693964171129801e+03  3.9666418950693469e+03  3.9661553594568786e+03  3.9679755364607386e+03  3.9716051589876124e+03  3.9761497617873192e+03  3.9805901469855439e+03  3.9840862984032715e+03  3.9862019280315380e+03  3.9869763017037690e+03  3.9868325250335929e+03  3.9863703163545229e+03  3.9861248182040513e+03  3.9863743084490388e+03  3.9870548719527460e+03  3.9878015585279568e+03  3.9880958443902891e+03  3.9874682224485123e+03  3.9856892300614222e+03  3.9828857907306992e+03  3.9795422135932827e+03  3.9763815803649936e+03  3.9741634856771243e+03  3.9734646678320569e+03  3.9745172494259928e+03  3.9771591831695478e+03  3.9707207927752424e+03  3.9687639349359292e+03  3.9691978567586953e+03  3.9719378378376969e+03  3.9763269589434167e+03  3.9813119066415748e+03  3.9857600287616515e+03  3.9888010588361385e+03  3.9900692033691180e+03  3.9897651662889475e+03  3.9885295170685135e+03  3.9871857777155478e+03  3.9864489508996026e+03  3.9866953406150410e+03  3.9878599865713413e+03  3.9894834393628735e+03  3.9908843021148123e+03  3.9913989043835622e+03  3.9906120016567388e+03  3.9885064051300715e+03  3.9854845599696164e+03  3.9822554367756302e+03  3.9796242427608709e+03  3.9782556695736280e+03  3.9784904994495432e+03  3.9802748491206066e+03  3.9743878176504727e+03  3.9736409780371537e+03  3.9753048086039275e+03  3.9791365736323291e+03  3.9843087560798208e+03  3.9896227443656721e+03  3.9938647992831911e+03  3.9961759031298475e+03  3.9963012873350663e+03  3.9946353274483035e+03  3.9920571335900754e+03  3.9896253938153295e+03  3.9882406909518727e+03  3.9883817776801661e+03  3.9899882715305130e+03  3.9925125308582683e+03  3.9951138710925493e+03  3.9969303730895476e+03  3.9973448960852497e+03  3.9961664604904122e+03  3.9936752176996142e+03  3.9905221170136165e+03  3.9875206877262190e+03  3.9854027782100511e+03  3.9846197004930395e+03  3.9852502536375250e+03  3.9798515689729843e+03  3.9805940839016275e+03  3.9836777605583834e+03  3.9886836118279457e+03  3.9946170810588687e+03  4.0001575009913631e+03  4.0040447722845342e+03  4.0054661827504779e+03  4.0043033654403284e+03  4.0011545886907538e+03  3.9971330587533334e+03  3.9935191238615798e+03  3.9913845668293516e+03  3.9913029892116215e+03  3.9932222648952661e+03  3.9965214475481807e+03  4.0002221190913733e+03  4.0032848240810258e+03  4.0049024189766665e+03  4.0047075399477658e+03  4.0028397757989419e+03  3.9998621420868512e+03  3.9965630790216460e+03  3.9937142462302336e+03  3.9918638625219878e+03  3.9912266088816268e+03  3.9862112678157368e+03  3.9885180848878254e+03  3.9930317699295215e+03  3.9991608269713470e+03  4.0057646693543538e+03  4.0114334386568594e+03  4.0148951708211916e+03  4.0154080249254584e+03  4.0129959510628996e+03  4.0084456509353076e+03  4.0030717639781024e+03  3.9983359624181944e+03  3.9954449545519537e+03  3.9950453987091623e+03  3.9970924148371769e+03  4.0009122145943315e+03  4.0054256802944133e+03  4.0094603461788461e+03  4.0120603078783670e+03  4.0127102477607750e+03  4.0114191200113614e+03  4.0086529833317513e+03  4.0051517474832385e+03  4.0016967250256262e+03  3.9989043803809877e+03  3.9971043472076281e+03  3.9924233504123690e+03  3.9961342760416801e+03  4.0018799247456150e+03  4.0089233530933388e+03  4.0160167495826217e+03  4.0217030728902778e+03  4.0247320351903395e+03  4.0244465349449556e+03  4.0210002059139943e+03  4.0153292154001701e+03  4.0088917497112147e+03  4.0032665660438570e+03  3.9997389416938595e+03  3.9989924406886676e+03  4.0009811758985365e+03  4.0049998008747689e+03  4.0099148276097030e+03  4.0144826904183833e+03  4.0176639496577945e+03  4.0188515666670364e+03  4.0179614480059095e+03  4.0153765626234558e+03  4.0117786078462532e+03  4.0079300816849645e+03  4.0044761716546031e+03  4.0018195335650312e+03  3.9975486049026522e+03  4.0022888000104531e+03  4.0088748426066963e+03  4.0164710606851163e+03  4.0237760709791742e+03  4.0293353364908430e+03  4.0319535394967729e+03  4.0310647795017339e+03  4.0269269915652230e+03  4.0205709721594540e+03  4.0135236422269227e+03  4.0074002140756770e+03  4.0034934385579440e+03  4.0024754001668994e+03  4.0042820721876774e+03  4.0081932959040432e+03  4.0130683815077864e+03  4.0176615561975377e+03  4.0209282315931814e+03  4.0222440908539138e+03  4.0214903447272641e+03  4.0190004264712102e+03  4.0154027141026791e+03  4.0114185713283946e+03  4.0076786429744311e+03  4.0046040821849087e+03  4.0009680981163474e+03  4.0062175350878351e+03  4.0131175945824107e+03  4.0207921795441175e+03  4.0279486552317626e+03  4.0331893771412160e+03  4.0354080951815317e+03  4.0341344034133599e+03  4.0297012458773875e+03  4.0231745283022478e+03  4.0160700192145664e+03  4.0099531120090342e+03  4.0060462908612267e+03  4.0049538585667187e+03  4.0065675565759166e+03  4.0101600403772295e+03  4.0146227636415565e+03  4.0187718305072322e+03  4.0216355894265516e+03  4.0226518090206741e+03  4.0217349926711640e+03  4.0192151040626613e+03  4.0156846662511261e+03  4.0118112259887657e+03  4.0081721281690825e+03  4.0051512282223130e+03  4.0025146949387654e+03  4.0077116521562943e+03  4.0143566128096295e+03  4.0215922363483965e+03  4.0281971780334366e+03  4.0328851994535771e+03  4.0346742330439620e+03  4.0331965638535867e+03  4.0288361052890514e+03  4.0226415079142562e+03  4.0160451803481174e+03  4.0104826762552589e+03  4.0070313526148529e+03  4.0061695503412730e+03  4.0077116082612638e+03  4.0109189845730129e+03  4.0147400705701994e+03  4.0181018433499748e+03  4.0201707029068821e+03  4.0205173669892010e+03  4.0191550624616461e+03  4.0164599196032109e+03  4.0130146078176858e+03  4.0094315131750141e+03  4.0062075352854263e+03  4.0036431352120180e+03  4.0024918607912118e+03  4.0071466481344978e+03  4.0130299799835598e+03  4.0193524720560258e+03  4.0250178178057972e+03  4.0289001979002724e+03  4.0301765051652956e+03  4.0285948444187038e+03  4.0245781311504406e+03  4.0191220521872010e+03  4.0135219309508607e+03  4.0090204093635471e+03  4.0064870657595152e+03  4.0062211802616434e+03  4.0079233230500981e+03  4.0108285181719248e+03  4.0139492129263881e+03  4.0163508004945370e+03  4.0173809754291983e+03  4.0167954631369394e+03  4.0147588848928021e+03  4.0117383514195644e+03  4.0083362186086001e+03  4.0051191426325345e+03  4.0024920282654202e+03  4.0006431176158194e+03  4.0015804695870238e+03  4.0053729366691659e+03  4.0101450239671153e+03  4.0152059783723175e+03  4.0196218392300952e+03  4.0224650865077147e+03  4.0231030826282977e+03  4.0214187924658909e+03  4.0178769386632507e+03  4.0134061419964210e+03  4.0091359550618813e+03  4.0060774095820639e+03  4.0048493747193097e+03  4.0055308844698216e+03  4.0076746395455598e+03  4.0104663015000683e+03  4.0129730630390873e+03  4.0144036624278342e+03  4.0143050476336407e+03  4.0126460075822629e+03  4.0097762701815145e+03  4.0062877639170874e+03  4.0028306462118812e+03  3.9999432509873923e+03  3.9979424066996603e+03  3.9968949575008191e+03  4.0006606306810759e+03  4.0034992575845090e+03  4.0070289673115431e+03  4.0106653511930176e+03  4.0136529703243905e+03  4.0152848815899511e+03  4.0151432798380147e+03  4.0132679457481363e+03  4.0101811374948320e+03  4.0067514744707541e+03  4.0039402767312267e+03  4.0025155210453777e+03  4.0028265831552999e+03  4.0047085553198003e+03  4.0075405751844914e+03  4.0104343552241839e+03  4.0124913600945824e+03  4.0130499272830621e+03  4.0118511403502125e+03  4.0090811760644615e+03  4.0052879976053568e+03  4.0012080069800486e+03  3.9975616433860132e+03  3.9948798324743657e+03  3.9934067308727876e+03  3.9930953261069376e+03  4.0005935965083568e+03  4.0026236608660602e+03  4.0050136322292569e+03  4.0072705898425443e+03  4.0088117493677291e+03  4.0091550105543529e+03  4.0081107452359001e+03  4.0058954070611990e+03  4.0031119069561410e+03  4.0005918973270286e+03  3.9991483048582045e+03  3.9993200182198548e+03  4.0011930059620122e+03  4.0043555612985197e+03  4.0080015820140648e+03  4.0111497685478075e+03  4.0129120984942069e+03  4.0127317278057740e+03  4.0105222005779578e+03  4.0066723214942435e+03  4.0019230624655438e+03  3.9971603156454057e+03  3.9931885862026193e+03  3.9905506168299353e+03  3.9894382794611220e+03  3.9897082053285576e+03  4.0020152403768980e+03  4.0035757583353620e+03  4.0051291849794711e+03  4.0062415136903232e+03  4.0064775300061056e+03  4.0055662909287221e+03  4.0035457307067900e+03  4.0008211010757518e+03  3.9980989518756201e+03  3.9962047433987873e+03  3.9958375582936719e+03  3.9973408968545809e+03  4.0005654720911539e+03  4.0048713083577109e+03  4.0092732443558211e+03  4.0126900035628928e+03  4.0142254149106425e+03  4.0134007006445008e+03  4.0102722064659033e+03  4.0054045243111218e+03  3.9997126023742294e+03  3.9942236967558160e+03  3.9898296896498537e+03  3.9870978735219123e+03  3.9861861294448404e+03  3.9868740344944540e+03  4.0051869635473190e+03  4.0067275563902690e+03  4.0078752964475061e+03  4.0082129008397665e+03  4.0074142381305201e+03  4.0053903326244413e+03  4.0023907740812506e+03  3.9990091488469216e+03  3.9960709327117061e+03  3.9944248301033290e+03  3.9946961473291281e+03  3.9970785116228503e+03  4.0012321185820770e+03  4.0063263582696845e+03  4.0112221986667405e+03  4.0147478013953969e+03  4.0159919364162179e+03  4.0145331284015692e+03  4.0105409602754653e+03  4.0047239513231843e+03  3.9981432811028785e+03  3.9919487533576371e+03  3.9871119590624362e+03  3.9842276233723710e+03  3.9834302067161907e+03  3.9844364400181635e+03  4.0099347365468707e+03  4.0119117768858878e+03  4.0131168687572876e+03  4.0131072791146576e+03  4.0116216917633201e+03  4.0087127895233311e+03  4.0048112466171765e+03  4.0006829509172544e+03  3.9972739581418336e+03  3.9954764096444587e+03  3.9958786977117215e+03  3.9985735499737079e+03  4.0030850572231629e+03  4.0084440776803817e+03  4.0134000010265695e+03  4.0167170673873320e+03  4.0174770086223793e+03  4.0153056437072064e+03  4.0104617552392770e+03  4.0037660830318900e+03  3.9963937108933101e+03  3.9895900257768108e+03  3.9843883695327272e+03  3.9814028065713637e+03  3.9807446133156873e+03  3.9820732821520255e+03  4.0156866771076020e+03  4.0184617263569248e+03  4.0201224463610251e+03  4.0201677575095428e+03  4.0183591447264971e+03  4.0148451518909396e+03  4.0101949245059386e+03  4.0053146127286900e+03  4.0012557291404546e+03  3.9989595409087869e+03  3.9990045273598125e+03  4.0014276827900380e+03  4.0056739996928886e+03  4.0106962066495016e+03  4.0151868245605756e+03  4.0178871538685416e+03  4.0178937847728289e+03  4.0148810927203317e+03  4.0091801761687052e+03  4.0016946526468923e+03  3.9936789280840994e+03  3.9864409848382220e+03  3.9810494434426869e+03  3.9781200519472804e+03  3.9777319155701048e+03  3.9794851641412206e+03  4.0215986442991848e+03  4.0253610410775768e+03  4.0277331866116724e+03  4.0281391034565208e+03  4.0263303316567590e+03  4.0225059996904183e+03  4.0173234034890324e+03  4.0117832196725476e+03  4.0070107092099420e+03  4.0039856047832682e+03  4.0032899378605202e+03  4.0049411488525607e+03  4.0083584919329483e+03  4.0124785164824643e+03  4.0159973450775587e+03  4.0176826809712834e+03  4.0166768968110232e+03  4.0127120049843816e+03  4.0061796896174742e+03  3.9980388242795634e+03  3.9895868668490948e+03  3.9821570447205727e+03  3.9768209591333398e+03  3.9741724610380006e+03  3.9742446591063804e+03  3.9765731995044789e+03  4.0267392646646772e+03  4.0314691297212835e+03  4.0346235242697899e+03  4.0355547882305059e+03  4.0339857385075834e+03  4.0301267586143745e+03  4.0246707252009842e+03  4.0186581903059459e+03  4.0132433383010475e+03  4.0094190169481722e+03  4.0077702728527902e+03  4.0083194964101531e+03  4.0105051548126380e+03  4.0133046886451202e+03  4.0154765978243449e+03  4.0158649967993911e+03  4.0136908647234090e+03  4.0087548685438983e+03  4.0014985193213688e+03  3.9929077727481636e+03  3.9842848471512593e+03  3.9769480511816232e+03  3.9719371715082711e+03  3.9697995731549058e+03  3.9705098295595803e+03  3.9735376688273391e+03  4.0302929793250046e+03  4.0357717204535361e+03  4.0395947385477989e+03  4.0410646894115721e+03  4.0398723412293575e+03  4.0362098773976631e+03  4.0307566766550945e+03  4.0245361129841376e+03  4.0186794630778527e+03  4.0141572940071042e+03  4.0115455221737629e+03  4.0108840358875350e+03  4.0116640741020105e+03  4.0129508327976350e+03  4.0136153099191583e+03  4.0126210612073533e+03  4.0092950913856503e+03  4.0035136113923295e+03  3.9957539656976546e+03  3.9869983960510594e+03  3.9785136174457994e+03  3.9715620093172402e+03  3.9671178477036788e+03  3.9656612930801998e+03  3.9671028406470900e+03  3.9708544883062632e+03  4.0317342562096446e+03  4.0375984375978910e+03  4.0418330461872961e+03  4.0437266781877624e+03  4.0429482385832234e+03  4.0396539199258582e+03  4.0344690741537106e+03  4.0283475478520063e+03  4.0223464648588542e+03  4.0173752590093791e+03  4.0139814209313486e+03  4.0122246298769642e+03  4.0116699091299838e+03  4.0115032526034875e+03  4.0107443355091832e+03  4.0085062870636953e+03  4.0042386789595830e+03  3.9978919022214191e+03  3.9899596739017488e+03  3.9813868808835141e+03  3.9733640247435173e+03  3.9670584728932054e+03  3.9633498399309119e+03  3.9626378226292509e+03  3.9647736019141848e+03  3.9691319818102788e+03  4.0309305853428605e+03  4.0367542669600939e+03  4.0410690181496539e+03  4.0431906072448105e+03  4.0427850585431056e+03  4.0399659539316212e+03  4.0352761458780460e+03  4.0295586515064037e+03  4.0237533181558219e+03  4.0186732357446335e+03  4.0148164327067839e+03  4.0122574440536891e+03  4.0106440855082888e+03  4.0093008463100296e+03  4.0074155304569476e+03  4.0042650187824265e+03  3.9994247489193690e+03  3.9929087172216155e+03  3.9852028485977648e+03  3.9771805253845018e+03  3.9699182311954182e+03  3.9644547195656774e+03  3.9615532323052944e+03  3.9615287512490918e+03  3.9641880806699132e+03  3.9689000007932846e+03  4.0281481604840192e+03  4.0335316897766261e+03  4.0375982684791284e+03  4.0397289238646608e+03  4.0396085059752704e+03  4.0373101841192115e+03  4.0332792942454594e+03  4.0282220723295713e+03  4.0229319517341883e+03  4.0181001436127403e+03  4.0141575424340067e+03  4.0111849363768843e+03  4.0089118589815148e+03  4.0068042844928209e+03  4.0042208763956355e+03  4.0006006286608790e+03  3.9956358420218503e+03  3.9893864951498222e+03  3.9823052903359944e+03  3.9751638060159844e+03  3.9688941620844917e+03  3.9643821511391634e+03  3.9622623597539141e+03  3.9627692593028987e+03  3.9656870592683849e+03  3.9704146626674492e+03  4.0239606779441829e+03  4.0286031711536143e+03  4.0321620476926355e+03  4.0341113596835130e+03  4.0341735194435073e+03  4.0323889427568647e+03  4.0291030967760962e+03  4.0248762619429499e+03  4.0203432412765146e+03  4.0160611466302826e+03  4.0123830987238630e+03  4.0093871577751406e+03  4.0068762289275546e+03  4.0044485493611219e+03  4.0016221500025817e+03  3.9979835260467926e+03  3.9933239803154015e+03  3.9877289343979355e+03  3.9815958599062305e+03  3.9755729396710835e+03  3.9704294180326624e+03  3.9668860678362007e+03  3.9654467556241211e+03  3.9662759749537286e+03  3.9691587937985037e+03  3.9735577618288603e+03  </DataArray> 
</PointData> 
</Piece>
</UnstructuredGrid>
</VTKFile>