<?xml version="1.0"?>
<VTKFile type="UnstructuredGrid"  version="0.1"  >
<UnstructuredGrid>
<Piece  NumberOfPoints="676" NumberOfCells="1250">
<Points>
<DataArray  type="Float64"  NumberOfComponents="3"  format="ascii">0 0 0  0.04 0 0  0.08 0 0  0.12 0 0  0.16 0 0  0.2 0 0  0.24 0 0  0.28 0 0  0.32 0 0  0.36 0 0  0.4 0 0  0.44 0 0  0.48 0 0  0.52 0 0  0.5600000000000001 0 0  0.6 0 0  0.64 0 0  0.68 0 0  0.72 0 0  0.76 0 0  0.8 0 0  0.84 0 0  0.88 0 0  0.92 0 0  0.96 0 0  1 0 0  0 0.04 0  0.04 0.04 0  0.08 0.04 0  0.12 0.04 0  0.16 0.04 0  0.2 0.04 0  0.24 0.04 0  0.28 0.04 0  0.32 0.04 0  0.36 0.04 0  0.4 0.04 0  0.44 0.04 0  0.48 0.04 0  0.52 0.04 0  0.5600000000000001 0.04 0  0.6 0.04 0  0.64 0.04 0  0.68 0.04 0  0.72 0.04 0  0.76 0.04 0  0.8 0.04 0  0.84 0.04 0  0.88 0.04 0  0.92 0.04 0  0.96 0.04 0  1 0.04 0  0 0.08 0  0.04 0.08 0  0.08 0.08 0  0.12 0.08 0  0.16 0.08 0  0.2 0.08 0  0.24 0.08 0  0.28 0.08 0  0.32 0.08 0  0.36 0.08 0  0.4 0.08 0  0.44 0.08 0  0.48 0.08 0  0.52 0.08 0  0.5600000000000001 0.08 0  0.6 0.08 0  0.64 0.08 0  0.68 0.08 0  0.72 0.08 0  0.76 0.08 0  0.8 0.08 0  0.84 0.08 0  0.88 0.08 0  0.92 0.08 0  0.96 0.08 0  1 0.08 0  0 0.12 0  0.04 0.12 0  0.08 0.12 0  0.12 0.12 0  0.16 0.12 0  0.2 0.12 0  0.24 0.12 0  0.28 0.12 0  0.32 0.12 0  0.36 0.12 0  0.4 0.12 0  0.44 0.12 0  0.48 0.12 0  0.52 0.12 0  0.5600000000000001 0.12 0  0.6 0.12 0  0.64 0.12 0  0.68 0.12 0  0.72 0.12 0  0.76 0.12 0  0.8 0.12 0  0.84 0.12 0  0.88 0.12 0  0.92 0.12 0  0.96 0.12 0  1 0.12 0  0 0.16 0  0.04 0.16 0  0.08 0.16 0  0.12 0.16 0  0.16 0.16 0  0.2 0.16 0  0.24 0.16 0  0.28 0.16 0  0.32 0.16 0  0.36 0.16 0  0.4 0.16 0  0.44 0.16 0  0.48 0.16 0  0.52 0.16 0  0.5600000000000001 0.16 0  0.6 0.16 0  0.64 0.16 0  0.68 0.16 0  0.72 0.16 0  0.76 0.16 0  0.8 0.16 0  0.84 0.16 0  0.88 0.16 0  0.92 0.16 0  0.96 0.16 0  1 0.16 0  0 0.2 0  0.04 0.2 0  0.08 0.2 0  0.12 0.2 0  0.16 0.2 0  0.2 0.2 0  0.24 0.2 0  0.28 0.2 0  0.32 0.2 0  0.36 0.2 0  0.4 0.2 0  0.44 0.2 0  0.48 0.2 0  0.52 0.2 0  0.5600000000000001 0.2 0  0.6 0.2 0  0.64 0.2 0  0.68 0.2 0  0.72 0.2 0  0.76 0.2 0  0.8 0.2 0  0.84 0.2 0  0.88 0.2 0  0.92 0.2 0  0.96 0.2 0  1 0.2 0  0 0.24 0  0.04 0.24 0  0.08 0.24 0  0.12 0.24 0  0.16 0.24 0  0.2 0.24 0  0.24 0.24 0  0.28 0.24 0  0.32 0.24 0  0.36 0.24 0  0.4 0.24 0  0.44 0.24 0  0.48 0.24 0  0.52 0.24 0  0.5600000000000001 0.24 0  0.6 0.24 0  0.64 0.24 0  0.68 0.24 0  0.72 0.24 0  0.76 0.24 0  0.8 0.24 0  0.84 0.24 0  0.88 0.24 0  0.92 0.24 0  0.96 0.24 0  1 0.24 0  0 0.28 0  0.04 0.28 0  0.08 0.28 0  0.12 0.28 0  0.16 0.28 0  0.2 0.28 0  0.24 0.28 0  0.28 0.28 0  0.32 0.28 0  0.36 0.28 0  0.4 0.28 0  0.44 0.28 0  0.48 0.28 0  0.52 0.28 0  0.5600000000000001 0.28 0  0.6 0.28 0  0.64 0.28 0  0.68 0.28 0  0.72 0.28 0  0.76 0.28 0  0.8 0.28 0  0.84 0.28 0  0.88 0.28 0  0.92 0.28 0  0.96 0.28 0  1 0.28 0  0 0.32 0  0.04 0.32 0  0.08 0.32 0  0.12 0.32 0  0.16 0.32 0  0.2 0.32 0  0.24 0.32 0  0.28 0.32 0  0.32 0.32 0  0.36 0.32 0  0.4 0.32 0  0.44 0.32 0  0.48 0.32 0  0.52 0.32 0  0.5600000000000001 0.32 0  0.6 0.32 0  0.64 0.32 0  0.68 0.32 0  0.72 0.32 0  0.76 0.32 0  0.8 0.32 0  0.84 0.32 0  0.88 0.32 0  0.92 0.32 0  0.96 0.32 0  1 0.32 0  0 0.36 0  0.04 0.36 0  0.08 0.36 0  0.12 0.36 0  0.16 0.36 0  0.2 0.36 0  0.24 0.36 0  0.28 0.36 0  0.32 0.36 0  0.36 0.36 0  0.4 0.36 0  0.44 0.36 0  0.48 0.36 0  0.52 0.36 0  0.5600000000000001 0.36 0  0.6 0.36 0  0.64 0.36 0  0.68 0.36 0  0.72 0.36 0  0.76 0.36 0  0.8 0.36 0  0.84 0.36 0  0.88 0.36 0  0.92 0.36 0  0.96 0.36 0  1 0.36 0  0 0.4 0  0.04 0.4 0  0.08 0.4 0  0.12 0.4 0  0.16 0.4 0  0.2 0.4 0  0.24 0.4 0  0.28 0.4 0  0.32 0.4 0  0.36 0.4 0  0.4 0.4 0  0.44 0.4 0  0.48 0.4 0  0.52 0.4 0  0.5600000000000001 0.4 0  0.6 0.4 0  0.64 0.4 0  0.68 0.4 0  0.72 0.4 0  0.76 0.4 0  0.8 0.4 0  0.84 0.4 0  0.88 0.4 0  0.92 0.4 0  0.96 0.4 0  1 0.4 0  0 0.44 0  0.04 0.44 0  0.08 0.44 0  0.12 0.44 0  0.16 0.44 0  0.2 0.44 0  0.24 0.44 0  0.28 0.44 0  0.32 0.44 0  0.36 0.44 0  0.4 0.44 0  0.44 0.44 0  0.48 0.44 0  0.52 0.44 0  0.5600000000000001 0.44 0  0.6 0.44 0  0.64 0.44 0  0.68 0.44 0  0.72 0.44 0  0.76 0.44 0  0.8 0.44 0  0.84 0.44 0  0.88 0.44 0  0.92 0.44 0  0.96 0.44 0  1 0.44 0  0 0.48 0  0.04 0.48 0  0.08 0.48 0  0.12 0.48 0  0.16 0.48 0  0.2 0.48 0  0.24 0.48 0  0.28 0.48 0  0.32 0.48 0  0.36 0.48 0  0.4 0.48 0  0.44 0.48 0  0.48 0.48 0  0.52 0.48 0  0.5600000000000001 0.48 0  0.6 0.48 0  0.64 0.48 0  0.68 0.48 0  0.72 0.48 0  0.76 0.48 0  0.8 0.48 0  0.84 0.48 0  0.88 0.48 0  0.92 0.48 0  0.96 0.48 0  1 0.48 0  0 0.52 0  0.04 0.52 0  0.08 0.52 0  0.12 0.52 0  0.16 0.52 0  0.2 0.52 0  0.24 0.52 0  0.28 0.52 0  0.32 0.52 0  0.36 0.52 0  0.4 0.52 0  0.44 0.52 0  0.48 0.52 0  0.52 0.52 0  0.5600000000000001 0.52 0  0.6 0.52 0  0.64 0.52 0  0.68 0.52 0  0.72 0.52 0  0.76 0.52 0  0.8 0.52 0  0.84 0.52 0  0.88 0.52 0  0.92 0.52 0  0.96 0.52 0  1 0.52 0  0 0.5600000000000001 0  0.04 0.5600000000000001 0  0.08 0.5600000000000001 0  0.12 0.5600000000000001 0  0.16 0.5600000000000001 0  0.2 0.5600000000000001 0  0.24 0.5600000000000001 0  0.28 0.5600000000000001 0  0.32 0.5600000000000001 0  0.36 0.5600000000000001 0  0.4 0.5600000000000001 0  0.44 0.5600000000000001 0  0.48 0.5600000000000001 0  0.52 0.5600000000000001 0  0.5600000000000001 0.5600000000000001 0  0.6 0.5600000000000001 0  0.64 0.5600000000000001 0  0.68 0.5600000000000001 0  0.72 0.5600000000000001 0  0.76 0.5600000000000001 0  0.8 0.5600000000000001 0  0.84 0.5600000000000001 0  0.88 0.5600000000000001 0  0.92 0.5600000000000001 0  0.96 0.5600000000000001 0  1 0.5600000000000001 0  0 0.6 0  0.04 0.6 0  0.08 0.6 0  0.12 0.6 0  0.16 0.6 0  0.2 0.6 0  0.24 0.6 0  0.28 0.6 0  0.32 0.6 0  0.36 0.6 0  0.4 0.6 0  0.44 0.6 0  0.48 0.6 0  0.52 0.6 0  0.5600000000000001 0.6 0  0.6 0.6 0  0.64 0.6 0  0.68 0.6 0  0.72 0.6 0  0.76 0.6 0  0.8 0.6 0  0.84 0.6 0  0.88 0.6 0  0.92 0.6 0  0.96 0.6 0  1 0.6 0  0 0.64 0  0.04 0.64 0  0.08 0.64 0  0.12 0.64 0  0.16 0.64 0  0.2 0.64 0  0.24 0.64 0  0.28 0.64 0  0.32 0.64 0  0.36 0.64 0  0.4 0.64 0  0.44 0.64 0  0.48 0.64 0  0.52 0.64 0  0.5600000000000001 0.64 0  0.6 0.64 0  0.64 0.64 0  0.68 0.64 0  0.72 0.64 0  0.76 0.64 0  0.8 0.64 0  0.84 0.64 0  0.88 0.64 0  0.92 0.64 0  0.96 0.64 0  1 0.64 0  0 0.68 0  0.04 0.68 0  0.08 0.68 0  0.12 0.68 0  0.16 0.68 0  0.2 0.68 0  0.24 0.68 0  0.28 0.68 0  0.32 0.68 0  0.36 0.68 0  0.4 0.68 0  0.44 0.68 0  0.48 0.68 0  0.52 0.68 0  0.5600000000000001 0.68 0  0.6 0.68 0  0.64 0.68 0  0.68 0.68 0  0.72 0.68 0  0.76 0.68 0  0.8 0.68 0  0.84 0.68 0  0.88 0.68 0  0.92 0.68 0  0.96 0.68 0  1 0.68 0  0 0.72 0  0.04 0.72 0  0.08 0.72 0  0.12 0.72 0  0.16 0.72 0  0.2 0.72 0  0.24 0.72 0  0.28 0.72 0  0.32 0.72 0  0.36 0.72 0  0.4 0.72 0  0.44 0.72 0  0.48 0.72 0  0.52 0.72 0  0.5600000000000001 0.72 0  0.6 0.72 0  0.64 0.72 0  0.68 0.72 0  0.72 0.72 0  0.76 0.72 0  0.8 0.72 0  0.84 0.72 0  0.88 0.72 0  0.92 0.72 0  0.96 0.72 0  1 0.72 0  0 0.76 0  0.04 0.76 0  0.08 0.76 0  0.12 0.76 0  0.16 0.76 0  0.2 0.76 0  0.24 0.76 0  0.28 0.76 0  0.32 0.76 0  0.36 0.76 0  0.4 0.76 0  0.44 0.76 0  0.48 0.76 0  0.52 0.76 0  0.5600000000000001 0.76 0  0.6 0.76 0  0.64 0.76 0  0.68 0.76 0  0.72 0.76 0  0.76 0.76 0  0.8 0.76 0  0.84 0.76 0  0.88 0.76 0  0.92 0.76 0  0.96 0.76 0  1 0.76 0  0 0.8 0  0.04 0.8 0  0.08 0.8 0  0.12 0.8 0  0.16 0.8 0  0.2 0.8 0  0.24 0.8 0  0.28 0.8 0  0.32 0.8 0  0.36 0.8 0  0.4 0.8 0  0.44 0.8 0  0.48 0.8 0  0.52 0.8 0  0.5600000000000001 0.8 0  0.6 0.8 0  0.64 0.8 0  0.68 0.8 0  0.72 0.8 0  0.76 0.8 0  0.8 0.8 0  0.84 0.8 0  0.88 0.8 0  0.92 0.8 0  0.96 0.8 0  1 0.8 0  0 0.84 0  0.04 0.84 0  0.08 0.84 0  0.12 0.84 0  0.16 0.84 0  0.2 0.84 0  0.24 0.84 0  0.28 0.84 0  0.32 0.84 0  0.36 0.84 0  0.4 0.84 0  0.44 0.84 0  0.48 0.84 0  0.52 0.84 0  0.5600000000000001 0.84 0  0.6 0.84 0  0.64 0.84 0  0.68 0.84 0  0.72 0.84 0  0.76 0.84 0  0.8 0.84 0  0.84 0.84 0  0.88 0.84 0  0.92 0.84 0  0.96 0.84 0  1 0.84 0  0 0.88 0  0.04 0.88 0  0.08 0.88 0  0.12 0.88 0  0.16 0.88 0  0.2 0.88 0  0.24 0.88 0  0.28 0.88 0  0.32 0.88 0  0.36 0.88 0  0.4 0.88 0  0.44 0.88 0  0.48 0.88 0  0.52 0.88 0  0.5600000000000001 0.88 0  0.6 0.88 0  0.64 0.88 0  0.68 0.88 0  0.72 0.88 0  0.76 0.88 0  0.8 0.88 0  0.84 0.88 0  0.88 0.88 0  0.92 0.88 0  0.96 0.88 0  1 0.88 0  0 0.92 0  0.04 0.92 0  0.08 0.92 0  0.12 0.92 0  0.16 0.92 0  0.2 0.92 0  0.24 0.92 0  0.28 0.92 0  0.32 0.92 0  0.36 0.92 0  0.4 0.92 0  0.44 0.92 0  0.48 0.92 0  0.52 0.92 0  0.5600000000000001 0.92 0  0.6 0.92 0  0.64 0.92 0  0.68 0.92 0  0.72 0.92 0  0.76 0.92 0  0.8 0.92 0  0.84 0.92 0  0.88 0.92 0  0.92 0.92 0  0.96 0.92 0  1 0.92 0  0 0.96 0  0.04 0.96 0  0.08 0.96 0  0.12 0.96 0  0.16 0.96 0  0.2 0.96 0  0.24 0.96 0  0.28 0.96 0  0.32 0.96 0  0.36 0.96 0  0.4 0.96 0  0.44 0.96 0  0.48 0.96 0  0.52 0.96 0  0.5600000000000001 0.96 0  0.6 0.96 0  0.64 0.96 0  0.68 0.96 0  0.72 0.96 0  0.76 0.96 0  0.8 0.96 0  0.84 0.96 0  0.88 0.96 0  0.92 0.96 0  0.96 0.96 0  1 0.96 0  0 1 0  0.04 1 0  0.08 1 0  0.12 1 0  0.16 1 0  0.2 1 0  0.24 1 0  0.28 1 0  0.32 1 0  0.36 1 0  0.4 1 0  0.44 1 0  0.48 1 0  0.52 1 0  0.5600000000000001 1 0  0.6 1 0  0.64 1 0  0.68 1 0  0.72 1 0  0.76 1 0  0.8 1 0  0.84 1 0  0.88 1 0  0.92 1 0  0.96 1 0  1 1 0  </DataArray>
</Points>
<Cells>
[...]
<PointData  Scalars="gamma"> 
<DataArray  type="Float64"  Name="gamma"  format="ascii">4.0053068810829645e+03  4.0065859777301280e+03  4.0076300744504420e+03  4.0082384832439798e+03  4.0082682124945140e+03  4.0076823163728559e+03  4.0065713297461512e+03  4.0051361617544699e+03  4.0036345032779518e+03  4.0023070561576747e+03  4.0013087543678507e+03  4.0006697214147534e+03  4.0003007317307379e+03  4.0000418353641890e+03  3.9997364116158383e+03  3.9993024864445320e+03  3.9987730879362753e+03  3.9982884710683938e+03  3.9980416255723485e+03  3.9981976144092209e+03  3.9988190850822716e+03  3.9998291321601123e+03  4.0010279751189523e+03  4.0021572005135567e+03  4.0029847089509849e+03  4.0033751635356430e+03  4.0074742604832272e+03  4.0091412326878849e+03  4.0103917853131024e+03  4.0109295464203078e+03  4.0105489155908076e+03  4.0092068245612404e+03  4.0070557984068164e+03  4.0044213655794715e+03  4.0017258234593792e+03  3.9993802340266002e+03  3.9976792510966338e+03  3.9967337181748699e+03  3.9964634777127603e+03  3.9966518094365692e+03  3.9970408066515965e+03  3.9974318958135409e+03  3.9977536126982559e+03  3.9980712152806941e+03  3.9985357004938678e+03  3.9992946179507417e+03  4.0004034817217803e+03  4.0017769457971463e+03  4.0032019599552345e+03  4.0044075032446694e+03  4.0051598058544505e+03  4.0053410859697342e+03  4.0099200597047939e+03  4.0120278549895688e+03  4.0135065046911718e+03  4.0139435993201241e+03  4.0130547661215251e+03  4.0107847122194430e+03  4.0073563936602982e+03  4.0032443280678517e+03  3.9990731388767640e+03  3.9954690655154427e+03  3.9929098043361132e+03  3.9916197571444527e+03  3.9915428588503773e+03  3.9923989010173673e+03  3.9938007602637767e+03  3.9953891763004272e+03  3.9969364773503789e+03  3.9983835879128587e+03  3.9998016405067656e+03  4.0013003322250684e+03  4.0029270791045647e+03  4.0046040711736950e+03  4.0061322153706697e+03  4.0072591433696803e+03  4.0077779050719419e+03  4.0076092064979512e+03  4.0123929413292453e+03  4.0149828042064169e+03  4.0167322727600854e+03  4.0170990937561787e+03  4.0157045393580624e+03  4.0124687969227552e+03  4.0076815114610185e+03  4.0019744989633659e+03  3.9961953226322180e+03  3.9912149158924872e+03  3.9877261050076249e+03  3.9860937747228527e+03  3.9863004647297662e+03  3.9879996649929963e+03  3.9906537782186838e+03  3.9937065038852647e+03  3.9967298598763682e+03  3.9994982614828118e+03  4.0019722373531695e+03  4.0042110893470590e+03  4.0062619473594928e+03  4.0080797138018702e+03  4.0095146017305956e+03  4.0103692105966147e+03  4.0104922422684126e+03  4.0098589743702296e+03  4.0145389058369906e+03  4.0176282634619247e+03  4.0197111516313780e+03  4.0201121116397017e+03  4.0183450721083323e+03  4.0142865050423820e+03  4.0082730914541930e+03  4.0010797773150598e+03  3.9937723483778891e+03  3.9874718486147258e+03  3.9830990812910027e+03  3.9811745221632927e+03  3.9817305839934943e+03  3.9843566308187701e+03  3.9883549553826042e+03  3.9929517551507302e+03  3.9974923192694091e+03  4.0015598241341409e+03  4.0049893486775095e+03  4.0077909010519302e+03  4.0100300935772298e+03  4.0117274367399173e+03  4.0128214932535479e+03  4.0132050337574142e+03  4.0128050659778037e+03  4.0116570221677007e+03  4.0159527732423862e+03  4.0195199703253315e+03  4.0220045585561334e+03  4.0226073699137237e+03  4.0207267771936858e+03  4.0161706999241551e+03  4.0092870845965276e+03  4.0009554911366204e+03  3.9924265625260105e+03  3.9850485761686150e+03  3.9799596466411522e+03  3.9778356730790856e+03  3.9787651775670915e+03  3.9822811117373285e+03  3.9875308035820694e+03  3.9935238494981963e+03  3.9993769208019776e+03  4.0044814630824344e+03  4.0085533239447750e+03  4.0115702500575649e+03  4.0136448928582940e+03  4.0148996771175462e+03  4.0153979305160974e+03  4.0151499535460566e+03  4.0141719755965560e+03  4.0125513558706098e+03  4.0162627754631071e+03  4.0202337950016740e+03  4.0231695040961240e+03  4.0241693795871602e+03  4.0225147437180772e+03  4.0179179876441649e+03  4.0106907047733293e+03  4.0017583414576711e+03  3.9924976784581077e+03  3.9844351528616935e+03  3.9788929276734711e+03  3.9766869321187410e+03  3.9779626967699860e+03  3.9822099156085083e+03  3.9884414147390557e+03  3.9954736974132470e+03  4.0022190014794569e+03  4.0079017924326417e+03  4.0121454355326182e+03  4.0149255590836656e+03  4.0164349841376438e+03  4.0169308782990547e+03  4.0166279890079963e+03  4.0156679951741121e+03  4.0141527221330480e+03  4.0122000341693920e+03  4.0152319623091980e+03  4.0194763061910021e+03  4.0228673188071421e+03  4.0244355389993857e+03  4.0233516694146233e+03  4.0192087157936148e+03  4.0122308010998740e+03  4.0033201829809277e+03  3.9939054206630171e+03  3.9856240813917243e+03  3.9799324984518585e+03  3.9777594814466693e+03  3.9793042495747891e+03  3.9840310206103395e+03  3.9908516476322748e+03  3.9984323529338476e+03  4.0055269837364981e+03  4.0112377744902747e+03  4.0151364058833783e+03  4.0172319143783448e+03  4.0178264960669308e+03  4.0173332088463085e+03  4.0161286922285144e+03  4.0144831591573657e+03  4.0125667831378382e+03  4.0104981831741457e+03  4.0128493753346625e+03  4.0171910803881592e+03  4.0209791070741394e+03  4.0232123302693863e+03  4.0229652449866408e+03  4.0196965437505323e+03  4.0134989058632823e+03  4.0051854832238623e+03  3.9961606367695035e+03  3.9881005392933025e+03  3.9825386673771409e+03  3.9804835627972898e+03  3.9821825232679776e+03  3.9870950851009966e+03  3.9940740918009324e+03  4.0016905749552661e+03  4.0085990928625943e+03  4.0138344021461626e+03  4.0169607371856564e+03  4.0180509251637209e+03  4.0175322886819176e+03  4.0159758498207293e+03  4.0139103467938130e+03  4.0117150708555719e+03  4.0096020673815801e+03  4.0076605443947415e+03  4.0093802206528685e+03  4.0136252251650535e+03  4.0176898279981729e+03  4.0205769145700669e+03  4.0212859437481561e+03  4.0191401461211967e+03  4.0140742054448292e+03  4.0067632300839550e+03  3.9985246618348033e+03  3.9910087958173949e+03  3.9857724883881392e+03  3.9838711395065948e+03  3.9855940318053163e+03  3.9904173555876455e+03  3.9971791407044479e+03  4.0044134825856936e+03  4.0107367992214190e+03  4.0151693446594104e+03  4.0173041867669012e+03  4.0172932654982587e+03  4.0156838718461845e+03  4.0131837797015201e+03  4.0104432724392886e+03  4.0079179056176104e+03  4.0058323598650677e+03  4.0042244302094559e+03  4.0053507702251127e+03  4.0093251343941802e+03  4.0135032353157712e+03  4.0169200138183301e+03  4.0185256475126776e+03  4.0175231689175839e+03  4.0136873898129620e+03  4.0075339951247388e+03  4.0002559443188266e+03  3.9934323106863890e+03  3.9886013731715366e+03  3.9868376651523263e+03  3.9884666320575575e+03  3.9929997416885926e+03  3.9992999554747626e+03  4.0059167087512769e+03  4.0114811510516056e+03  4.0150401588269406e+03  4.0162354950803042e+03  4.0152926800450086e+03  4.0128503480146910e+03  4.0097092326480711e+03  4.0065933571184819e+03  4.0039938662150485e+03  4.0021225778595872e+03  4.0009585437549672e+03  4.0014601170066712e+03  4.0050478497259296e+03  4.0091660579535319e+03  4.0128982435950879e+03  4.0151732106543514e+03  4.0151053188575083e+03  4.0123347331943346e+03  4.0072285234278534e+03  4.0008486090657348e+03  3.9946823783874620e+03  3.9902237226475786e+03  3.9885457048527451e+03  3.9900035050165425e+03  3.9941561024739758e+03  3.9999207707724172e+03  4.0059014533057739e+03  4.0107816276024728e+03  4.0136586260279737e+03  4.0142236406334437e+03  4.0127500050340295e+03  4.0099193874385032e+03  4.0065651522919420e+03  4.0034269234028352e+03  4.0009892223352917e+03  3.9994338282400395e+03  3.9986906878804784e+03  3.9984328467446048e+03  4.0016001065821220e+03  4.0055079633048463e+03  4.0092927999810659e+03  4.0118901992309407e+03  4.0123708939462422e+03  4.0102898415122186e+03  4.0059060867116436e+03  4.0001733116561586e+03  3.9944905771472904e+03  3.9902967337580835e+03  3.9886483739647329e+03  3.9899209196152938e+03  3.9937232756578151e+03  3.9990420842676558e+03  4.0045582557595380e+03  4.0090278334605946e+03  4.0116057092569918e+03  4.0120180275669290e+03  4.0105471676005882e+03  4.0078594536905957e+03  4.0047543189494600e+03  4.0019274574872593e+03  3.9998187636342559e+03  3.9985726002743590e+03  3.9980936481659446e+03  3.9968471146098077e+03  3.9996426632021453e+03  4.0032343480645923e+03  4.0068063707733413e+03  4.0093285810481616e+03  4.0098820256290028e+03  4.0080026950108936e+03  4.0039032675663207e+03  3.9984728145859799e+03  3.9930418969684019e+03  3.9889930324340030e+03  3.9873525740057271e+03  3.9885003687573085e+03  3.9920855259500804e+03  3.9971635913761393e+03  4.0024986526779139e+03  4.0069250652094374e+03  4.0096515805968488e+03  4.0104187913249825e+03  4.0094782365589613e+03  4.0074256206962950e+03  4.0049660139292705e+03  4.0026994959462972e+03  4.0009917304938708e+03  3.9999503354571889e+03  3.9994855712000917e+03  3.9969844035170045e+03  3.9995136396271191e+03  4.0027303965544206e+03  4.0058576514516103e+03  4.0079263790093141e+03  4.0080851093764295e+03  4.0059236215914470e+03  4.0016781249851720e+03  3.9962245100070495e+03  3.9908498346955644e+03  3.9868798403102219e+03  3.9852926177784611e+03  3.9864475649224387e+03  3.9900117592158558e+03  3.9950954133564142e+03  4.0005396792940301e+03  4.0052548079318785e+03  4.0084978256737577e+03  4.0100086052189495e+03  4.0099799288877316e+03  4.0088981017606234e+03  4.0073312458271807e+03  4.0057478483553568e+03  4.0044203785524605e+03  4.0034243212345136e+03  4.0027036489175475e+03  3.9987457758544933e+03  4.0011249799367856e+03  4.0039385737885732e+03  4.0064416521843273e+03  4.0077529438897441e+03  4.0071428848043565e+03  4.0043231492167456e+03  3.9996176311162681e+03  3.9939342200526826e+03  3.9885348197074613e+03  3.9846805711065658e+03  3.9832747263881492e+03  3.9846215418584093e+03  3.9883733907532114e+03  3.9936713858507364e+03  3.9994212410551659e+03  4.0046059007755575e+03  4.0085318832805478e+03  4.0109383077249863e+03  4.0119536797639944e+03  4.0119427521278462e+03  4.0113203935999259e+03  4.0104083259294707e+03  4.0093778583517701e+03  4.0082759424394744e+03  4.0070961068876959e+03  4.0016640089460529e+03  4.0039693014918466e+03  4.0063549884488530e+03  4.0081093714991480e+03  4.0084652645015258e+03  4.0068609526339196e+03  4.0031833516007996e+03  3.9978902986478256e+03  3.9919490379669628e+03  3.9865991403253133e+03  3.9830169115391805e+03  3.9819945785939635e+03  3.9837390287739790e+03  3.9878494195404564e+03  3.9934703076518877e+03  3.9995592726179934e+03  4.0051739284665418e+03  4.0096837776577859e+03  4.0128472608453512e+03  4.0147500261766809e+03  4.0156537631860670e+03  4.0158331220218060e+03  4.0154700408017811e+03  4.0146365434448448e+03  4.0133495697835760e+03  4.0116491613942176e+03  4.0050149425753152e+03  4.0072438758586827e+03  4.0091563448454253e+03  4.0100852991199495e+03  4.0094023815587761e+03  4.0067461635180225e+03  4.0022099133531751e+03  3.9964058276225710e+03  3.9903636090464934e+03  3.9852843159465392e+03  3.9822268234223798e+03  3.9818298284713474e+03  3.9841586954325439e+03  3.9887216747371685e+03  3.9946420052644617e+03  4.0009212090322444e+03  4.0067015200480978e+03  4.0114415803110996e+03  4.0149576168976873e+03  4.0173376679718554e+03  4.0187858623457191e+03  4.0194755945628331e+03  4.0194753558073430e+03  4.0187674441496324e+03  4.0173305577885039e+03  4.0152279864372758e+03  4.0080013865827082e+03  4.0100622063834803e+03  4.0114274284264620e+03  4.0114952752398235e+03  4.0097965661711773e+03  4.0061852366185162e+03  4.0009660122563391e+03  3.9948975995861792e+03  3.9890509374374847e+03  3.9845561264622174e+03  3.9823150499140061e+03  3.9827714120953387e+03  3.9858111990349257e+03  3.9908226300325500e+03  3.9968914401100642e+03  4.0030627597968069e+03  4.0085803471091012e+03  4.0130258056275597e+03  4.0163216187716580e+03  4.0186167748977268e+03  4.0201194265098297e+03  4.0209570952536701e+03  4.0211240059380821e+03  4.0205274251597584e+03  4.0190943684746112e+03  4.0168727875925165e+03  4.0099581266650162e+03  4.0116927343228417e+03  4.0124222786251667e+03  4.0116352607148160e+03  4.0090336956669480e+03  4.0046824606701653e+03  3.9990771932248435e+03  3.9930901485111899e+03  3.9877937456227983e+03  3.9842063269389337e+03  3.9830355331310402e+03  3.9844993916503345e+03  3.9882821004998118e+03  3.9936386684128438e+03  3.9996141095502389e+03  4.0053047728723468e+03  4.0100754675255130e+03  4.0136632100040438e+03  4.0161422071978927e+03  4.0177788032674030e+03  4.0188470822704858e+03  4.0194869891582821e+03  4.0196616999646599e+03  4.0192209037845032e+03  4.0180257641156973e+03  4.0160651607586533e+03  4.0105163669841195e+03  4.0117505834245817e+03  4.0117748500174653e+03  4.0101902943174359e+03  4.0068698834164993e+03  4.0020656326186490e+03  3.9964221210321825e+03  3.9908746512748794e+03  3.9864485292159775e+03  3.9840117353962191e+03  3.9840530885025746e+03  3.9865543949939474e+03  3.9909987569672762e+03  3.9965159538246130e+03  4.0021220366572984e+03  4.0069782453095122e+03  4.0105864285311354e+03  4.0128597218654540e+03  4.0140525915842459e+03  4.0145868399330448e+03  4.0148483652793730e+03  4.0150367568725428e+03  4.0151224439241983e+03  4.0149159132000968e+03  4.0142035307268329e+03  4.0128787476901111e+03  4.0096765988148359e+03  4.0102802746302023e+03  4.0095875338639485e+03  4.0073248562303615e+03  4.0035212465557079e+03  3.9985754382261921e+03  3.9932247708283644e+03  3.9884095321361392e+03  3.9850612628345143e+03  3.9838711291546247e+03  3.9851053610515210e+03  3.9885250599427391e+03  3.9934396415463625e+03  3.9988841071803467e+03  4.0038712418242703e+03  4.0076434569975754e+03  4.0098461715527519e+03  4.0105692796740254e+03  4.0102486735836201e+03  4.0094695241413383e+03  4.0087472753374545e+03  4.0083667419491226e+03  4.0083321318065850e+03  4.0084327556974922e+03  4.0083816297316816e+03  4.0079586326344888e+03  4.0077692812280138e+03  4.0077041759157846e+03  4.0063680473886770e+03  4.0036113477607437e+03  3.9995899860269310e+03  3.9947977544088826e+03  3.9900032271513473e+03  3.9860961453555647e+03  3.9838786348775584e+03  3.9838571928815632e+03  3.9860956936092789e+03  3.9901762229765422e+03  3.9952863956942465e+03  4.0004156946089602e+03  4.0046090886029137e+03  4.0072050030061637e+03  4.0079858922359394e+03  4.0071957204343807e+03  4.0054223110014773e+03  4.0033882074914013e+03  4.0017237639764990e+03  4.0007987267700123e+03  4.0006626110977791e+03  4.0011002859708260e+03  4.0017655161050370e+03  4.0023301880192680e+03  4.0053225117629709e+03  4.0046603522123200e+03  4.0028420661149062e+03  3.9998261315714258e+03  3.9958557929822459e+03  3.9914643177444564e+03  3.9873936029291026e+03  3.9844380573407434e+03  3.9832511206253930e+03  3.9841666639947180e+03  3.9870874976798100e+03  3.9914781819652144e+03  3.9964725980302433e+03  4.0010744215950122e+03  4.0043993874282287e+03  4.0058917794284321e+03  4.0054515196726834e+03  4.0034338548329238e+03  4.0005236503691481e+03  3.9975266816747067e+03  3.9951460193225307e+03  3.9938130822806129e+03  3.9936200049395629e+03  3.9943617572349308e+03  3.9956579091959679e+03  3.9971001113359225e+03  4.0028885812749277e+03  4.0017936926006973e+03  3.9997158507533004e+03  3.9966946477320644e+03  3.9930170444276514e+03  3.9892042013661780e+03  3.9859245655144314e+03  3.9838482394126449e+03  3.9834781028828484e+03  3.9850035987905526e+03  3.9882206249559754e+03  3.9925461362838091e+03  3.9971320390448755e+03  4.0010551994524067e+03  4.0035363240006659e+03  4.0041282103943390e+03  4.0028193211632897e+03  4.0000221354128475e+03  3.9964505168007886e+03  3.9929244741860389e+03  3.9901619653404859e+03  3.9886184173809552e+03  3.9884156315860769e+03  3.9893700896369883e+03  3.9910980600798548e+03  3.9931531239394326e+03  4.0008922450560976e+03  3.9995771675003812e+03  3.9974778190889915e+03  3.9946832596418417e+03  3.9914837433224375e+03  3.9883475921865602e+03  3.9858390327944167e+03  3.9844921934851086e+03  3.9846721776360259e+03  3.9864612291948592e+03  3.9896045072217257e+03  3.9935366276685277e+03  3.9974897560581016e+03  4.0006613052666939e+03  4.0024003654431485e+03  4.0023632959448842e+03  4.0005947664409750e+03  3.9975106528081897e+03  3.9937877580654854e+03  3.9901927992584097e+03  3.9874000513146502e+03  3.9858479712421931e+03  3.9856703533713526e+03  3.9867126686704109e+03  3.9886178780456275e+03  3.9909470412197188e+03  </DataArray> 
</PointData> 
</Piece>
</UnstructuredGrid>
</VTKFile>