<?xml version="1.0"?>
<VTKFile type="UnstructuredGrid"  version="0.1"  >
<UnstructuredGrid>
<Piece  NumberOfPoints="4225" NumberOfCells="8192">
<Points>
<DataArray  type="Float64"  NumberOfComponents="3"  format="ascii">0 0 0  0.015625 0 0  0.03125 0 0  0.046875 0 0  0.0625 0 0  0.078125 0 0  0.09375 0 0  0.109375 0 0  0.125 0 0  0.140625 0 0  0.15625 0 0  0.171875 0 0  0.1875 0 0  0.203125 0 0  0.21875 0 0  0.234375 0 0  0.25 0 0  0.265625 0 0  0.28125 0 0  0.296875 0 0  0.3125 0 0  0.328125 0 0  0.34375 0 0  0.359375 0 0  0.375 0 0  0.390625 0 0  0.40625 0 0  0.421875 0 0  0.4375 0 0  0.453125 0 0  0.46875 0 0  0.484375 0 0  0.5 0 0  0.515625 0 0  0.53125 0 0  0.546875 0 0  0.5625 0 0  0.578125 0 0  0.59375 0 0  0.609375 0 0  0.625 0 0  0.640625 0 0  0.65625 0 0  0.671875 0 0  0.6875 0 0  0.703125 0 0  0.71875 0 0  0.734375 0 0  0.75 0 0  0.765625 0 0  0.78125 0 0  0.796875 0 0  0.8125 0 0  0.828125 0 0  0.84375 0 0  0.859375 0 0  0.875 0 0  0.890625 0 0  0.90625 0 0  0.921875 0 0  0.9375 0 0  0.953125 0 0  0.96875 0 0  0.984375 0 0  1 0 0  0 0.015625 0  0.015625 0.015625 0  0.03125 0.015625 0  0.046875 0.015625 0  0.0625 0.015625 0  0.078125 0.015625 0  0.09375 0.015625 0  0.109375 0.015625 0  0.125 0.015625 0  0.140625 0.015625 0  0.15625 0.015625 0  0.171875 0.015625 0  0.1875 0.015625 0  0.203125 0.015625 0  0.21875 0.015625 0  0.234375 0.015625 0  0.25 0.015625 0  0.265625 0.015625 0  0.28125 0.015625 0  0.296875 0.015625 0  0.3125 0.015625 0  0.328125 0.015625 0  0.34375 0.015625 0  0.359375 0.015625 0  0.375 0.015625 0  0.390625 0.015625 0  0.40625 0.015625 0  0.421875 0.015625 0  0.4375 0.015625 0  0.453125 0.015625 0  0.46875 0.015625 0  0.484375 0.015625 0  0.5 0.015625 0  0.515625 0.015625 0  0.53125 0.015625 0  0.546875 0.015625 0  0.5625 0.015625 0  0.578125 0.015625 0  0.59375 0.015625 0  0.609375 0.015625 0  0.625 0.015625 0  0.640625 0.015625 0  0.65625 0.015625 0  0.671875 0.015625 0  0.6875 0.015625 0  0.703125 0.015625 0  0.71875 0.015625 0  0.734375 0.015625 0  0.75 0.015625 0  0.765625 0.015625 0  0.78125 0.015625 0  0.796875 0.015625 0  0.8125 0.015625 0  0.828125 0.015625 0  0.84375 0.015625 0  0.859375 0.015625 0  0.875 0.015625 0  0.890625 0.015625 0  0.90625 0.015625 0  0.921875 0.015625 0  0.9375 0.015625 0  0.953125 0.015625 0  0.96875 0.015625 0  0.984375 0.015625 0  1 0.015625 0  0 0.03125 0  0.015625 0.03125 0  0.03125 0.03125 0  0.046875 0.03125 0  0.0625 0.03125 0  0.078125 0.03125 0  0.09375 0.03125 0  0.109375 0.03125 0  0.125 0.03125 0  0.140625 0.03125 0  0.15625 0.03125 0  0.171875 0.03125 0  0.1875 0.03125 0  0.203125 0.03125 0  0.21875 0.03125 0  0.234375 0.03125 0  0.25 0.03125 0  0.265625 0.03125 0  0.28125 0.03125 0  0.296875 0.03125 0  0.3125 0.03125 0  0.328125 0.03125 0  0.34375 0.03125 0  0.359375 0.03125 0  0.375 0.03125 0  0.390625 0.03125 0  0.40625 0.03125 0  0.421875 0.03125 0  0.4375 0.03125 0  0.453125 0.03125 0  0.46875 0.03125 0  0.484375 0.03125 0  0.5 0.03125 0  0.515625 0.03125 0  0.53125 0.03125 0  0.546875 0.03125 0  0.5625 0.03125 0  0.578125 0.03125 0  0.59375 0.03125 0  0.609375 0.03125 0  0.625 0.03125 0  0.640625 0.03125 0  0.65625 0.03125 0  0.671875 0.03125 0  0.6875 0.03125 0  0.703125 0.03125 0  0.71875 0.03125 0  0.734375 0.03125 0  0.75 0.03125 0  0.765625 0.03125 0  0.78125 0.03125 0  0.796875 0.03125 0  0.8125 0.03125 0  0.828125 0.03125 0  0.84375 0.03125 0  0.859375 0.03125 0  0.875 0.03125 0  0.890625 0.03125 0  0.90625 0.03125 0  0.921875 0.03125 0  0.9375 0.03125 0  0.953125 0.03125 0  0.96875 0.03125 0  0.984375 0.03125 0  1 0.03125 0  0 0.046875 0  0.015625 0.046875 0  0.03125 0.046875 0  0.046875 0.046875 0  0.0625 0.046875 0  0.078125 0.046875 0  0.09375 0.046875 0  0.109375 0.046875 0  0.125 0.046875 0  0.140625 0.046875 0  0.15625 0.046875 0  0.171875 0.046875 0  0.1875 0.046875 0  0.203125 0.046875 0  0.21875 0.046875 0  0.234375 0.046875 0  0.25 0.046875 0  0.265625 0.046875 0  0.28125 0.046875 0  0.296875 0.046875 0  0.3125 0.046875 0  0.328125 0.046875 0  0.34375 0.046875 0  0.359375 0.046875 0  0.375 0.046875 0  0.390625 0.046875 0  0.40625 0.046875 0  0.421875 0.046875 0  0.4375 0.046875 0  0.453125 0.046875 0  0.46875 0.046875 0  0.484375 0.046875 0  0.5 0.046875 0  0.515625 0.046875 0  0.53125 0.046875 0  0.546875 0.046875 0  0.5625 0.046875 0  0.578125 0.046875 0  0.59375 0.046875 0  0.609375 0.046875 0  0.625 0.046875 0  0.640625 0.046875 0  0.65625 0.046875 0  0.671875 0.046875 0  0.6875 0.046875 0  0.703125 0.046875 0  0.71875 0.046875 0  0.734375 0.046875 0  0.75 0.046875 0  0.765625 0.046875 0  0.78125 0.046875 0  0.796875 0.046875 0  0.8125 0.046875 0  0.828125 0.046875 0  0.84375 0.046875 0  0.859375 0.046875 0  0.875 0.046875 0  0.890625 0.046875 0  0.90625 0.046875 0  0.921875 0.046875 0  0.9375 0.046875 0  0.953125 0.046875 0  0.96875 0.046875 0  0.984375 0.046875 0  1 0.046875 0  0 0.0625 0  0.015625 0.0625 0  0.03125 0.0625 0  0.046875 0.0625 0  0.0625 0.0625 0  0.078125 0.0625 0  0.09375 0.0625 0  0.109375 0.0625 0  0.125 0.0625 0  0.140625 0.0625 0  0.15625 0.0625 0  0.171875 0.0625 0  0.1875 0.0625 0  0.203125 0.0625 0  0.21875 0.0625 0  0.234375 0.0625 0  0.25 0.0625 0  0.265625 0.0625 0  0.28125 0.0625 0  0.296875 0.0625 0  0.3125 0.0625 0  0.328125 0.0625 0  0.34375 0.0625 0  0.359375 0.0625 0  0.375 0.0625 0  0.390625 0.0625 0  0.40625 0.0625 0  0.421875 0.0625 0  0.4375 0.0625 0  0.453125 0.0625 0  0.46875 0.0625 0  0.484375 0.0625 0  0.5 0.0625 0  0.515625 0.0625 0  0.53125 0.0625 0  0.546875 0.0625 0  0.5625 0.0625 0  0.578125 0.0625 0  0.59375 0.0625 0  0.609375 0.0625 0  0.625 0.0625 0  0.640625 0.0625 0  0.65625 0.0625 0  0.671875 0.0625 0  0.6875 0.0625 0  0.703125 0.0625 0  0.71875 0.0625 0  0.734375 0.0625 0  0.75 0.0625 0  0.765625 0.0625 0  0.78125 0.0625 0  0.796875 0.0625 0  0.8125 0.0625 0  0.828125 0.0625 0  0.84375 0.0625 0  0.859375 0.0625 0  0.875 0.0625 0  0.890625 0.0625 0  0.90625 0.0625 0  0.921875 0.0625 0  0.9375 0.0625 0  0.953125 0.0625 0  0.96875 0.0625 0  0.984375 0.0625 0  1 0.0625 0  0 0.078125 0  0.015625 0.078125 0  0.03125 0.078125 0  0.046875 0.078125 0  0.0625 0.078125 0  0.078125 0.078125 0  0.09375 0.078125 0  0.109375 0.078125 0  0.125 0.078125 0  0.140625 0.078125 0  0.15625 0.078125 0  0.171875 0.078125 0  0.1875 0.078125 0  0.203125 0.078125 0  0.21875 0.078125 0  0.234375 0.078125 0  0.25 0.078125 0  0.265625 0.078125 0  0.28125 0.078125 0  0.296875 0.078125 0  0.3125 0.078125 0  0.328125 0.078125 0  0.34375 0.078125 0  0.359375 0.078125 0  0.375 0.078125 0  0.390625 0.078125 0  0.40625 0.078125 0  0.421875 0.078125 0  0.4375 0.078125 0  0.453125 0.078125 0  0.46875 0.078125 0  0.484375 0.078125 0  0.5 0.078125 0  0.515625 0.078125 0  0.53125 0.078125 0  0.546875 0.078125 0  0.5625 0.078125 0  0.578125 0.078125 0  0.59375 0.078125 0  0.609375 0.078125 0  0.625 0.078125 0  0.640625 0.078125 0  0.65625 0.078125 0  0.671875 0.078125 0  0.6875 0.078125 0  0.703125 0.078125 0  0.71875 0.078125 0  0.734375 0.078125 0  0.75 0.078125 0  0.765625 0.078125 0  0.78125 0.078125 0  0.796875 0.078125 0  0.8125 0.078125 0  0.828125 0.078125 0  0.84375 0.078125 0  0.859375 0.078125 0  0.875 0.078125 0  0.890625 0.078125 0  0.90625 0.078125 0  0.921875 0.078125 0  0.9375 0.078125 0  0.953125 0.078125 0  0.96875 0.078125 0  0.984375 0.078125 0  1 0.078125 0  0 0.09375 0  0.015625 0.09375 0  0.03125 0.09375 0  0.046875 0.09375 0  0.0625 0.09375 0  0.078125 0.09375 0  0.09375 0.09375 0  0.109375 0.09375 0  0.125 0.09375 0  0.140625 0.09375 0  0.15625 0.09375 0  0.171875 0.09375 0  0.1875 0.09375 0  0.203125 0.09375 0  0.21875 0.09375 0  0.234375 0.09375 0  0.25 0.09375 0  0.265625 0.09375 0  0.28125 0.09375 0  0.296875 0.09375 0  0.3125 0.09375 0  0.328125 0.09375 0  0.34375 0.09375 0  0.359375 0.09375 0  0.375 0.09375 0  0.390625 0.09375 0  0.40625 0.09375 0  0.421875 0.09375 0  0.4375 0.09375 0  0.453125 0.09375 0  0.46875 0.09375 0  0.484375 0.09375 0  0.5 0.09375 0  0.515625 0.09375 0  0.53125 0.09375 0  0.546875 0.09375 0  0.5625 0.09375 0  0.578125 0.09375 0  0.59375 0.09375 0  0.609375 0.09375 0  0.625 0.09375 0  0.640625 0.09375 0  0.65625 0.09375 0  0.671875 0.09375 0  0.6875 0.09375 0  0.703125 0.09375 0  0.71875 0.09375 0  0.734375 0.09375 0  0.75 0.09375 0  0.765625 0.09375 0  0.78125 0.09375 0  0.796875 0.09375 0  0.8125 0.09375 0  0.828125 0.09375 0  0.84375 0.09375 0  0.859375 0.09375 0  0.875 0.09375 0  0.890625 0.09375 0  0.90625 0.09375 0  0.921875 0.09375 0  0.9375 0.09375 0  0.953125 0.09375 0  0.96875 0.09375 0  0.984375 0.09375 0  1 0.09375 0  0 0.109375 0  0.015625 0.109375 0  0.03125 0.109375 0  0.046875 0.109375 0  0.0625 0.109375 0  0.078125 0.109375 0  0.09375 0.109375 0  0.109375 0.109375 0  0.125 0.109375 0  0.140625 0.109375 0  0.15625 0.109375 0  0.171875 0.109375 0  0.1875 0.109375 0  0.203125 0.109375 0  0.21875 0.109375 0  0.234375 0.109375 0  0.25 0.109375 0  0.265625 0.109375 0  0.28125 0.109375 0  0.296875 0.109375 0  0.3125 0.109375 0  0.328125 0.109375 0  0.34375 0.109375 0  0.359375 0.109375 0  0.375 0.109375 0  0.390625 0.109375 0  0.40625 0.109375 0  0.421875 0.109375 0  0.4375 0.109375 0  0.453125 0.109375 0  0.46875 0.109375 0  0.484375 0.109375 0  0.5 0.109375 0  0.515625 0.109375 0  0.53125 0.109375 0  0.546875 0.109375 0  0.5625 0.109375 0  0.578125 0.109375 0  0.59375 0.109375 0  0.609375 0.109375 0  0.625 0.109375 0  0.640625 0.109375 0  0.65625 0.109375 0  0.671875 0.109375 0  0.6875 0.109375 0  0.703125 0.109375 0  0.71875 0.109375 0  0.734375 0.109375 0  0.75 0.109375 0  0.765625 0.109375 0  0.78125 0.109375 0  0.796875 0.109375 0  0.8125 0.109375 0  0.828125 0.109375 0  0.84375 0.109375 0  0.859375 0.109375 0  0.875 0.109375 0  0.890625 0.109375 0  0.90625 0.109375 0  0.921875 0.109375 0  0.9375 0.109375 0  0.953125 0.109375 0  0.96875 0.109375 0  0.984375 0.109375 0  1 0.109375 0  0 0.125 0  0.015625 0.125 0  0.03125 0.125 0  0.046875 0.125 0  0.0625 0.125 0  0.078125 0.125 0  0.09375 0.125 0  0.109375 0.125 0  0.125 0.12
[...]
<PointData  Scalars="gamma"> 
<DataArray  type="Float64"  Name="gamma"  format="ascii">4.5040536808451552e+03  4.5092476905174044e+03  4.5162032168256146e+03  4.5259317244683225e+03  4.5394455584225616e+03  4.5577160356429076e+03  4.5816297523444427e+03  4.6119442102846133e+03  4.6492437952347846e+03  4.6938971401624021e+03  4.7460170209148773e+03  4.8054241855297041e+03  4.8716168972475743e+03  4.9437484232533907e+03  5.0206151343145875e+03  5.1006581727751354e+03  5.1819816625718968e+03  5.2623900506591199e+03  5.3394462986684939e+03  5.4105512664429134e+03  5.4730428102237438e+03  5.5243110151754254e+03  5.5619238347385863e+03  5.5837555130884530e+03  5.5881088287314669e+03  5.5738216842150623e+03  5.5403490554144682e+03  5.4878128490896170e+03  5.4170146927371479e+03  5.3294098423254463e+03  5.2270438710485214e+03  5.1124571622077519e+03  4.9885650415373921e+03  4.8585232905710454e+03  4.7255895549502620e+03  4.5929907383729633e+03  4.4638049666896195e+03  4.3408643810200056e+03  4.2266822392384647e+03  4.1234049744384047e+03  4.0327873495288313e+03  3.9561869451223579e+03  3.8945730886062984e+03  3.8485450113892271e+03  3.8183544297914023e+03  3.8039287203448489e+03  3.8048921935181297e+03  3.8205844404287463e+03  3.8500761290242167e+03  3.8921837857294886e+03  3.9454858845265726e+03  4.0083428959630282e+03  4.0789237958857639e+03  4.1552409269949321e+03  4.2351941308918786e+03  4.3166238580773925e+03  4.3973716856506198e+03  4.4753455057086776e+03  4.5485857552877687e+03  4.6153285651996212e+03  4.6740616763176222e+03  4.7235694071486259e+03  4.7629637915045250e+03  4.7917001247679964e+03  4.8095764164161328e+03  4.4999898526180377e+03  4.5020989149989628e+03  4.5060129919238734e+03  4.5128193855192685e+03  4.5236048723192107e+03  4.5394112919359040e+03  4.5611894746262824e+03  4.5897526180144223e+03  4.6257301151534366e+03  4.6695228142568476e+03  4.7212608091430120e+03  4.7807651452136288e+03  4.8475152655890915e+03  4.9206245568219429e+03  4.9988268793193247e+03  5.0804773449120785e+03  5.1635706774940782e+03  5.2457801179325515e+03  5.3245189099240688e+03  5.3970249012704262e+03  5.4604667843088300e+03  5.5120681549308656e+03  5.5492431620495126e+03  5.5697353827735342e+03  5.5717500421186478e+03  5.5540691047743267e+03  5.5161393023136961e+03  5.4581248750571249e+03  5.3809195831802626e+03  5.2861160881280966e+03  5.1759347017051850e+03  5.0531172531464117e+03  4.9207949453961583e+03  4.7823411555383418e+03  4.6412209257327440e+03  4.5008483267627707e+03  4.3644610928698221e+03  4.2350192328408511e+03  4.1151311420047350e+03  4.0070075353558755e+03  3.9124407164126014e+03  3.8328046085932306e+03  3.7690697824064018e+03  3.7218274393883862e+03  3.6913168599675955e+03  3.6774519941013104e+03  3.6798444310500208e+03  3.6978216813519980e+03  3.7304413142666758e+03  3.7765028295637630e+03  3.8345600615061162e+03  3.9029373243764962e+03  3.9797523781139575e+03  4.0629486451674657e+03  4.1503380328493249e+03  4.2396543526439382e+03  4.3286158635241900e+03  4.4149941018393420e+03  4.4966850849048706e+03  4.5717783367481543e+03  4.6386190662215677e+03  4.6958592381522294e+03  4.7424941520484590e+03  4.7778823552915064e+03  4.8017481071086704e+03  4.4963170048680222e+03  4.4953268137676141e+03  4.4961763993594750e+03  4.5000271647775789e+03  4.5080383524486097e+03  4.5213201958775016e+03  4.5408855641623886e+03  4.5676012102291834e+03  4.6021395843751425e+03  4.6449321292260383e+03  4.6961250933635010e+03  4.7555392197960373e+03  4.8226351685613299e+03  4.8964871544660018e+03  4.9757679044943779e+03  5.0587485074734941e+03  5.1433168646057611e+03  5.2270180880223861e+03  5.3071192171342045e+03  5.3806989931596318e+03  5.4447612239464515e+03  5.4963676772004801e+03  5.5327837622816523e+03  5.5516278742199875e+03  5.5510135721592060e+03  5.5296730927611998e+03  5.4870512863084095e+03  5.4233609699750086e+03  5.3395937838832251e+03  5.2374845858728095e+03  5.1194317550091228e+03  4.9883799353212753e+03  4.8476751896900414e+03  4.7009047945568454e+03  4.5517347061982273e+03  4.4037570045402163e+03  4.2603575342298409e+03  4.1246108735330990e+03  3.9992061562597960e+03  3.8864036768885630e+03  3.7880191004207304e+03  3.7054298282491309e+03  3.6395968252473385e+03  3.5910950055284879e+03  3.5601459746157789e+03  3.5466483068300145e+03  3.5502023265955550e+03  3.5701282887381226e+03  3.6054786722486770e+03  3.6550468146079979e+03  3.7173751689119663e+03  3.7907669649529071e+03  3.8733049557363629e+03  3.9628802528233318e+03  4.0572330842523847e+03  4.1540057981193240e+03  4.2508067832519027e+03  4.3452824100810676e+03  4.4351928253164551e+03  4.5184866364399677e+03  4.5933692997631388e+03  4.6583603979662385e+03  4.7123358949322183e+03  4.7545527535137526e+03  4.7846548178852108e+03  4.4939308405193005e+03  4.4899061442972079e+03  4.4877467565900961e+03  4.4886857377809292e+03  4.4939521803199796e+03  4.5047219976802362e+03  4.5220673844835846e+03  4.5469060548785046e+03  4.5799511728979551e+03  4.6216628174913922e+03  4.6722019475871612e+03  4.7313881848412875e+03  4.7986632996299813e+03  4.8730629971038552e+03  4.9532003249777972e+03  5.0372645874862392e+03  5.1230398522372798e+03  5.2079467912593609e+03  5.2891105683174992e+03  5.3634557266974034e+03  5.4278266221638632e+03  5.4791290964015061e+03  5.5144861312652110e+03  5.5313975816231723e+03  5.5278921941761473e+03  5.5026593673343787e+03  5.4551487501246129e+03  5.3856278848100028e+03  5.2951915177025212e+03  5.1857205716620883e+03  5.0597935599416078e+03  4.9205578018691403e+03  4.7715715615558129e+03  4.6166306654899781e+03  4.4595939521297578e+03  4.3042210026225048e+03  4.1540331895744885e+03  4.0122055726481694e+03  3.8814931197294327e+03  3.7641907348552531e+03  3.6621231601984514e+03  3.5766583739785037e+03  3.5087368216160257e+03  3.4589086912014609e+03  3.4273723139516178e+03  3.4140083710370131e+03  3.4184066142729139e+03  3.4398839625024589e+03  3.4774948594520260e+03  3.5300364642553559e+03  3.5960524362996798e+03  3.6738396664436191e+03  3.7614622468994658e+03  3.8567762751403993e+03  3.9574678368107479e+03  4.0611048636368855e+03  4.1652017283670421e+03  4.2672936658635899e+03  4.3650166397968696e+03  4.4561873075610047e+03  4.5388773969886934e+03  4.6114771290166345e+03  4.6727432381522704e+03  4.7218285158435174e+03  4.7582914374445836e+03  4.4937176014359411e+03  4.4868025896237532e+03  4.4817687244709605e+03  4.4799176285627009e+03  4.4825450535151977e+03  4.4908893848833895e+03  4.5060790134943709e+03  4.5290796735570566e+03  4.5606426089962724e+03  4.6012543316132969e+03  4.6510888580602823e+03  4.7099636980775076e+03  4.7773014995229823e+03  4.8521000575288272e+03  4.9329142228396258e+03  5.0178539037249275e+03  5.1046026263598924e+03  5.1904607906912734e+03  5.2724166784869458e+03  5.3472463835128101e+03  5.4116412214571810e+03  5.4623580698877149e+03  5.4963848536747264e+03  5.5111104905008560e+03  5.5044865310986816e+03  5.4751668977531153e+03  5.4226128279010418e+03  5.3471524438199576e+03  5.2499881272715629e+03  5.1331496756482866e+03  4.9993964630501559e+03  4.8520768352509695e+03  4.6949570507410590e+03  4.5320346827245985e+03  4.3673521792639258e+03  4.2048251784780578e+03  4.0480974180043468e+03  3.9004301322318406e+03  3.7646293222164304e+03  3.6430098768383541e+03  3.5373918073256336e+03  3.4491212475245675e+03  3.3791075653925591e+03  3.3278679035424111e+03  3.2955715192635439e+03  3.2820781218929783e+03  3.2869666671697878e+03  3.3095534435795153e+03  3.3489005040320599e+03  3.4038173449376259e+03  3.4728600552100556e+03  3.5543328406085111e+03  3.6462968165579196e+03  3.7465902594135887e+03  3.8528631899032953e+03  3.9626273892724721e+03  4.0733209429119020e+03  4.1823844340748574e+03  4.2873442399328233e+03  4.3858972403638172e+03  4.4759907842261809e+03  4.5558920146157852e+03  4.6242415751075268e+03  4.6800881553278341e+03  4.7229020788095113e+03  4.4965139511757379e+03  4.4869302807654467e+03  4.4792335081190458e+03  4.4747901271777082e+03  4.4749588538009302e+03  4.4810369278261642e+03  4.4942054842629805e+03  4.5154750864820217e+03  4.5456322293835910e+03  4.5851874953770457e+03  4.6343261695235542e+03  4.6928625381349084e+03  4.7601997926320309e+03  4.8352983520777962e+03  4.9166563477597565e+03  5.0023067687061102e+03  5.0898361055757650e+03  5.1764290201712383e+03  5.2589424367308757e+03  5.3340104360085716e+03  5.3981785186277739e+03  5.4480624398155278e+03  5.4805233042549135e+03  5.4928474527927847e+03  5.4829174062225920e+03  5.4493592255487229e+03  5.3916524168546348e+03  5.3101910360339816e+03  5.2062887499543322e+03  5.0821258412566776e+03  4.9406418537859072e+03  4.7853830050189272e+03  4.6203178929783226e+03  4.4496377871558552e+03  4.2775585480778873e+03  4.1081399089660517e+03  3.9451347349445487e+03  3.7918764796343221e+03  3.6512080846150493e+03  3.5254507520510306e+03  3.4164070094735252e+03  3.3253897257224271e+03  3.2532674251367903e+03  3.2005163344885323e+03  3.1672708442023313e+03  3.1533661232436607e+03  3.1583691196255863e+03  3.1815967631573217e+03  3.2221225845553154e+03  3.2787749625761412e+03  3.3501316514496107e+03  3.4345160136489458e+03  3.5300004236600339e+03  3.6344216113294251e+03  3.7454113480371211e+03  3.8604439994486238e+03  3.9769003070822705e+03  4.0921446011142461e+03  4.2036107816468812e+03  4.3088910885200175e+03  4.4058210817088093e+03  4.4925544371347232e+03  4.5676220730861723e+03  4.6299716077541198e+03  4.6789849881930868e+03  4.5030668240628675e+03  4.4911094793498632e+03  4.4810344392483912e+03  4.4742688310613839e+03  4.4722301944368564e+03  4.4762706631058363e+03  4.4876204154361740e+03  4.5073314805843247e+03  4.5362226570389366e+03  4.5748261482421203e+03  4.6233366432976736e+03  4.6815640200661383e+03  4.7488916079781848e+03  4.8242429267735770e+03  4.9060608466866079e+03  4.9923039644331120e+03  5.0804653936056575e+03  5.1676188741251872e+03  5.2504959233543905e+03  5.3255956092832230e+03  5.3893255124537027e+03  5.4381688264054737e+03  5.4688687603899898e+03  5.4786180016262497e+03  5.4652385482755781e+03  5.4273362502605560e+03  5.3644152343987780e+03  5.2769401336783094e+03  5.1663384859773250e+03  5.0349413290193852e+03  4.8858661860843713e+03  4.7228524825658760e+03  4.5500641426279990e+03  4.3718770252369204e+03  4.1926695748418842e+03  4.0166335287248321e+03  3.8476180358055803e+03  3.6890156911675545e+03  3.5436935508554002e+03  3.4139669741036314e+03  3.3016098464904940e+03  3.2078918438687306e+03  3.1336320975940248e+03  3.0792588388327813e+03  3.0448660497499427e+03  3.0302604376138156e+03  3.0349947624398792e+03  3.0583863269654335e+03  3.0995219950089590e+03  3.1572532318421163e+03  3.2301862068322162e+03  3.3166728547066982e+03  3.4148088877066325e+03  3.5224440707813628e+03  3.6372086748754314e+03  3.7565580583514065e+03  3.8778350301407254e+03  3.9983473186188312e+03  4.1154554227606604e+03  4.2266646357425443e+03  4.3297142999474599e+03  4.4226574541566415e+03  4.5039249220003348e+03  4.5723694098084607e+03  4.6272871004178041e+03  4.5139946909774662e+03  4.5000259091305443e+03  4.4879244644784258e+03  4.4791733698781873e+03  4.4752444429217840e+03  4.4775404515724740e+03  4.4873367142183433e+03  4.5057232383895489e+03  4.5335481094901643e+03  4.5713626630929703e+03  4.6193690974346364e+03  4.6773716618516100e+03  4.7447333763956376e+03  4.8203412996608686e+03  4.9025844853425033e+03  4.9893497048759191e+03  5.0780404787964553e+03  5.1656246786401907e+03  5.2487147274811305e+03  5.3236821601756492e+03  5.3868050968153966e+03  5.4344433218372887e+03  5.4632316130828767e+03  5.4702783206973736e+03  5.4533535811083957e+03  5.4110505179067814e+03  5.3429036966922476e+03  5.2494520611561311e+03  5.1322383629309461e+03  4.9937431810146254e+03  4.8372582395070667e+03  4.6667099792735617e+03  4.4864493410701079e+03  4.3010267617573054e+03  4.1149720511071973e+03  3.9325970544685697e+03  3.7578351481244476e+03  3.5941263121554102e+03  3.4443506293523205e+03  3.3108074527143158e+03  3.1952329250785338e+03  3.0988455254258306e+03  3.0224080463494520e+03  2.9662947663242594e+03  2.9305542382130857e+03  2.9149606302583411e+03  2.9190494801457289e+03  2.9421366755213326e+03  2.9833221690216155e+03  3.0414821715006869e+03  3.1152552019842328e+03  3.2030283018260111e+03  3.3029298704633488e+03  3.4128349252521875e+03  3.5303871755023679e+03  3.6530402725534891e+03  3.7781181910038781e+03  3.9028922203892248e+03  4.0246698362681423e+03  4.1408890768509036e+03  4.2492111919509407e+03  4.3476043489940894e+03  4.4344120370387855e+03  4.5084013471718299e+03  4.5687882859888214e+03  4.5297515799851244e+03  4.5141930716363149e+03  4.5004768654242907e+03  4.4901366262047586e+03  4.4846935170136057e+03  4.4855963964341836e+03  4.4941616309040683e+03  4.5115136091394006e+03  4.5385266336179047e+03  4.5757686627573548e+03  4.6234475005832655e+03  4.6813605376936293e+03  4.7488500221528639e+03  4.8247669775591548e+03  4.9074480957701044e+03  4.9947109488119631e+03  5.0838733839023625e+03  5.1718026931058021e+03  5.2549988624598127e+03  5.3297138166693949e+03  5.3921051819326212e+03  5.4384189964499919e+03  5.4651915032101670e+03  5.4694562937647124e+03  5.4489403036099166e+03  5.4022310782310524e+03  5.3288987251591307e+03  5.2295591422047619e+03  5.1058702272020219e+03  4.9604592631976993e+03  4.7967867102366054e+03  4.6189582606145859e+03  4.4315022883121637e+03  4.2391329851602268e+03  4.0465200823850000e+03  3.8580840630724570e+03  3.6778315473601474e+03  3.5092397913619761e+03  3.3551929058258797e+03  3.2179664266364448e+03  3.0992520661493259e+03  3.0002113690858509e+03  2.9215457705428348e+03  2.8635710628241582e+03  2.8262861436915723e+03  2.8094286521969075e+03  2.8125132171350001e+03  2.8348511497317118e+03  2.8755532203867601e+03  2.9335194791464291e+03  3.0074217821743396e+03  3.0956856742221689e+03  3.1964784756965878e+03  3.3077097978062670e+03  3.4270492959341677e+03  3.5519644020361434e+03  3.6797782869969096e+03  3.8077457101498962e+03  3.9331420655624265e+03  4.0533591550536289e+03  4.1660002416903508e+03  4.2689668735053856e+03  4.3605307841925833e+03  4.4393857185853694e+03  4.5046760490747747e+03  4.5505951021257370e+03  4.5339187629049675e+03  4.5190503839200492e+03  4.5075685745184728e+03  4.5010385218678575e+03  4.5009503348892104e+03  4.5086571282932628e+03  4.5253139438510798e+03  4.5518181593448771e+03  4.5887518139633503e+03  4.6363264028030135e+03  4.6943312258640144e+03  4.7620873019390792e+03  4.8384100654883514e+03  4.9215853520438404e+03  5.0093642648254090e+03  5.0989830796833949e+03  5.1872140752125870e+03  5.2704518335006596e+03  5.3448370505736484e+03  5.4064163264508052e+03  5.4513320958227723e+03  5.4760323386620348e+03  5.4774856439973173e+03  5.4533842976387350e+03  5.4023169483604661e+03  5.3238934892770785e+03  5.2188081752323224e+03  5.0888324265117753e+03  4.9367356390219375e+03  4.7661397532737265e+03  4.5813203089013477e+03  4.3869722307944312e+03  4.1879618539257990e+03  3.9890872323116596e+03  3.7948665572400059e+03  3.6093699352938283e+03  3.4361036197628086e+03  3.2779490425795088e+03  3.1371526800966353e+03  3.0153577637111025e+03  2.9136656639212965e+03  2.8327136055692358e+03  2.7727560343041305e+03  2.7337390233665242e+03  2.7153600501014471e+03  2.7171087673182951e+03  2.7382876331953153e+03  2.7780141611383838e+03  2.8352089309101189e+03  2.9085752507777365e+03  2.9965773900046192e+03  3.0974245389464636e+03  3.2090670590342424e+03  3.3292101814803586e+03  3.4553482238153720e+03  3.5848198484358550e+03  3.7148822074623263e+03  3.8427993643389891e+03  3.9659384921436240e+03  4.0818662730559986e+03  4.1884377846554444e+03  4.2838709329633493e+03  4.3668010237505323e+03  4.4363121017669901e+03  4.5765596994356847e+03  4.5592769616615269e+03  4.5437598630091634e+03  4.5316257793880641e+03  4.5244781931075804e+03  4.5238432898143428e+03  4.5311063764419905e+03  4.5474492353164778e+03  4.5737890545605915e+03  4.6107193369083780e+03  4.6584533147439515e+03  4.7167709551995586e+03  4.7849716083313506e+03  4.8618356189544866e+03  4.9455995759084090e+03  5.0339510175221758e+03  5.1240490104681958e+03  5.2125767434326699e+03  5.2958308788637696e+03  5.3698497870614929e+03  5.4305790549270578e+03  5.4740681567391675e+03  5.4966874505028854e+03  5.4953504230394174e+03  5.4677230930343812e+03  5.4124013456833391e+03  5.3290381451665662e+03  5.2184061559994434e+03  5.0823870267734319e+03  4.9238858091387765e+03  4.7466767744044491e+03  4.5551941753782121e+03  4.3542872340178928e+03  4.1489619749196881e+03  3.9441329892033191e+03  3.7444057753397910e+03  3.5539054012273937e+03  3.3761606916367509e+03  3.2140460241643714e+03  3.0697761982097181e+03  2.9449446283773086e+03  2.8405918725909692e+03  2.7572903972027989e+03  2.6952322941426751e+03  2.6543089266453826e+03  2.6341746107672775e+03  2.6342898925691366e+03  2.6539433295431027e+03  2.6922536491311294e+03  2.7481565739903613e+03  2.8203823759001675e+03  2.9074312728024511e+03  3.0075540478761582e+03  3.1187447005962254e+03  3.2387505528442034e+03  3.3651031409023913e+03  3.4951706516801278e+03  3.6262299291287313e+03  3.7555535517298899e+03  3.8805055120664115e+03  3.9986378780722089e+03  4.1077806144746583e+03  4.2061174749016409e+03  4.2922423865760902e+03  4.3651927878996057e+03  4.6074363614036729e+03  4.5900862956256706e+03  4.5744535563796135e+03  4.5621876396733369e+03  4.5549241582319164e+03  4.5542198148516563e+03  4.5614872265363638e+03  4.5779307410306001e+03  4.6044838912905088e+03  4.6417488839119551e+03  4.6899386465216558e+03  4.7488225358962409e+03  4.8176778152004817e+03  4.8952503256902328e+03  4.9797291840092639e+03  5.0687415249899768e+03  5.1593739295553087e+03  5.2482268873269422e+03  5.3315071863456760e+03  5.4051603968573963e+03  5.4650417366079473e+03  5.5071189274954131e+03  5.5276957563837504e+03  5.5236406683533287e+03  5.4926016214397987e+03  5.4331872941595730e+03  5.3450960038991598e+03  5.2291774680642138e+03  5.0874185283794832e+03  4.9228514885012955e+03  4.7393918162881337e+03  4.5416195130179149e+03  4.3345243612126815e+03  4.1232386578808264e+03  3.9127814264773751e+03  3.7078354603341527e+03  3.5125733523635799e+03  3.3305417853616632e+03  3.1646059081630915e+03  3.0169487416159259e+03  2.8891151860173663e+03  2.7820869193649528e+03  2.6963734337358342e+03  2.6321054114949711e+03  2.5891190800567379e+03  2.5670234840739304e+03  2.5652462016488084e+03  2.5830564684719639e+03  2.6195676835736626e+03  2.6737237030602037e+03  2.7442751033301802e+03  2.8297526513436542e+03  2.9284454948593784e+03  3.0383910344480837e+03  3.1573820709849215e+03  3.2829947417885360e+03  3.4126381840998906e+03  3.5436241136258827e+03  3.6732519470976276e+03  3.7989030839937914e+03  3.9181367635743313e+03  4.0287796673186294e+03  4.1290021311423243e+03  4.2173753152892987e+03  4.2929057004194583e+03  4.6427601278586581e+03  4.6258963916697048e+03  4.6106983852915801e+03  4.5988406185673257e+03  4.5919842069915630e+03  4.5917103674273239e+03  4.5994537389032930e+03  4.6164367047259148e+03  4.6436053831507779e+03  4.6815676984549391e+03  4.7305340784003183e+03  4.7902619189821744e+03  4.8600059941534046e+03  4.9384783430753241e+03  5.0238226113212186e+03  5.1136090394560933e+03  5.2048569193361536e+03  5.2940910247055726e+03  5.3774370042421551e+03  5.4507579005807211e+03  5.5098299492960432e+03  5.5505509882666902e+03  5.5691697702903557e+03  5.5625199770248055e+03  5.5282395769705217e+03  5.4649550487644083e+03  5.3724113551106539e+03  5.2515325007172623e+03  5.1044037299758538e+03  4.9341742144853752e+03  4.7448874403220389e+03  4.5412542696687051e+03  4.3283896951333681e+03  4.1115377312121673e+03  3.8958091931951258e+03  3.6859542911042854e+03  3.4861865125442000e+03  3.3000670999518443e+03  3.1304517059676050e+03  2.9794937155309817e+03  2.8486932264483767e+03  2.7389773733458392e+03  2.6507967027389436e+03  2.5842233880225040e+03  2.5390396627324139e+03  2.5148082946370200e+03  2.5109206220506521e+03  2.5266211786472081e+03  2.5610109695216811e+03  2.613033891574990