<?xml version="1.0"?>
<VTKFile type="UnstructuredGrid"  version="0.1"  >
<UnstructuredGrid>
<Piece  NumberOfPoints="4225" NumberOfCells="8192">
<Points>
<DataArray  type="Float64"  NumberOfComponents="3"  format="ascii">0 0 0  0.015625 0 0  0.03125 0 0  0.046875 0 0  0.0625 0 0  0.078125 0 0  0.09375 0 0  0.109375 0 0  0.125 0 0  0.140625 0 0  0.15625 0 0  0.171875 0 0  0.1875 0 0  0.203125 0 0  0.21875 0 0  0.234375 0 0  0.25 0 0  0.265625 0 0  0.28125 0 0  0.296875 0 0  0.3125 0 0  0.328125 0 0  0.34375 0 0  0.359375 0 0  0.375 0 0  0.390625 0 0  0.40625 0 0  0.421875 0 0  0.4375 0 0  0.453125 0 0  0.46875 0 0  0.484375 0 0  0.5 0 0  0.515625 0 0  0.53125 0 0  0.546875 0 0  0.5625 0 0  0.578125 0 0  0.59375 0 0  0.609375 0 0  0.625 0 0  0.640625 0 0  0.65625 0 0  0.671875 0 0  0.6875 0 0  0.703125 0 0  0.71875 0 0  0.734375 0 0  0.75 0 0  0.765625 0 0  0.78125 0 0  0.796875 0 0  0.8125 0 0  0.828125 0 0  0.84375 0 0  0.859375 0 0  0.875 0 0  0.890625 0 0  0.90625 0 0  0.921875 0 0  0.9375 0 0  0.953125 0 0  0.96875 0 0  0.984375 0 0  1 0 0  0 0.015625 0  0.015625 0.015625 0  0.03125 0.015625 0  0.046875 0.015625 0  0.0625 0.015625 0  0.078125 0.015625 0  0.09375 0.015625 0  0.109375 0.015625 0  0.125 0.015625 0  0.140625 0.015625 0  0.15625 0.015625 0  0.171875 0.015625 0  0.1875 0.015625 0  0.203125 0.015625 0  0.21875 0.015625 0  0.234375 0.015625 0  0.25 0.015625 0  0.265625 0.015625 0  0.28125 0.015625 0  0.296875 0.015625 0  0.3125 0.015625 0  0.328125 0.015625 0  0.34375 0.015625 0  0.359375 0.015625 0  0.375 0.015625 0  0.390625 0.015625 0  0.40625 0.015625 0  0.421875 0.015625 0  0.4375 0.015625 0  0.453125 0.015625 0  0.46875 0.015625 0  0.484375 0.015625 0  0.5 0.015625 0  0.515625 0.015625 0  0.53125 0.015625 0  0.546875 0.015625 0  0.5625 0.015625 0  0.578125 0.015625 0  0.59375 0.015625 0  0.609375 0.015625 0  0.625 0.015625 0  0.640625 0.015625 0  0.65625 0.015625 0  0.671875 0.015625 0  0.6875 0.015625 0  0.703125 0.015625 0  0.71875 0.015625 0  0.734375 0.015625 0  0.75 0.015625 0  0.765625 0.015625 0  0.78125 0.015625 0  0.796875 0.015625 0  0.8125 0.015625 0  0.828125 0.015625 0  0.84375 0.015625 0  0.859375 0.015625 0  0.875 0.015625 0  0.890625 0.015625 0  0.90625 0.015625 0  0.921875 0.015625 0  0.9375 0.015625 0  0.953125 0.015625 0  0.96875 0.015625 0  0.984375 0.015625 0  1 0.015625 0  0 0.03125 0  0.015625 0.03125 0  0.03125 0.03125 0  0.046875 0.03125 0  0.0625 0.03125 0  0.078125 0.03125 0  0.09375 0.03125 0  0.109375 0.03125 0  0.125 0.03125 0  0.140625 0.03125 0  0.15625 0.03125 0  0.171875 0.03125 0  0.1875 0.03125 0  0.203125 0.03125 0  0.21875 0.03125 0  0.234375 0.03125 0  0.25 0.03125 0  0.265625 0.03125 0  0.28125 0.03125 0  0.296875 0.03125 0  0.3125 0.03125 0  0.328125 0.03125 0  0.34375 0.03125 0  0.359375 0.03125 0  0.375 0.03125 0  0.390625 0.03125 0  0.40625 0.03125 0  0.421875 0.03125 0  0.4375 0.03125 0  0.453125 0.03125 0  0.46875 0.03125 0  0.484375 0.03125 0  0.5 0.03125 0  0.515625 0.03125 0  0.53125 0.03125 0  0.546875 0.03125 0  0.5625 0.03125 0  0.578125 0.03125 0  0.59375 0.03125 0  0.609375 0.03125 0  0.625 0.03125 0  0.640625 0.03125 0  0.65625 0.03125 0  0.671875 0.03125 0  0.6875 0.03125 0  0.703125 0.03125 0  0.71875 0.03125 0  0.734375 0.03125 0  0.75 0.03125 0  0.765625 0.03125 0  0.78125 0.03125 0  0.796875 0.03125 0  0.8125 0.03125 0  0.828125 0.03125 0  0.84375 0.03125 0  0.859375 0.03125 0  0.875 0.03125 0  0.890625 0.03125 0  0.90625 0.03125 0  0.921875 0.03125 0  0.9375 0.03125 0  0.953125 0.03125 0  0.96875 0.03125 0  0.984375 0.03125 0  1 0.03125 0  0 0.046875 0  0.015625 0.046875 0  0.03125 0.046875 0  0.046875 0.046875 0  0.0625 0.046875 0  0.078125 0.046875 0  0.09375 0.046875 0  0.109375 0.046875 0  0.125 0.046875 0  0.140625 0.046875 0  0.15625 0.046875 0  0.171875 0.046875 0  0.1875 0.046875 0  0.203125 0.046875 0  0.21875 0.046875 0  0.234375 0.046875 0  0.25 0.046875 0  0.265625 0.046875 0  0.28125 0.046875 0  0.296875 0.046875 0  0.3125 0.046875 0  0.328125 0.046875 0  0.34375 0.046875 0  0.359375 0.046875 0  0.375 0.046875 0  0.390625 0.046875 0  0.40625 0.046875 0  0.421875 0.046875 0  0.4375 0.046875 0  0.453125 0.046875 0  0.46875 0.046875 0  0.484375 0.046875 0  0.5 0.046875 0  0.515625 0.046875 0  0.53125 0.046875 0  0.546875 0.046875 0  0.5625 0.046875 0  0.578125 0.046875 0  0.59375 0.046875 0  0.609375 0.046875 0  0.625 0.046875 0  0.640625 0.046875 0  0.65625 0.046875 0  0.671875 0.046875 0  0.6875 0.046875 0  0.703125 0.046875 0  0.71875 0.046875 0  0.734375 0.046875 0  0.75 0.046875 0  0.765625 0.046875 0  0.78125 0.046875 0  0.796875 0.046875 0  0.8125 0.046875 0  0.828125 0.046875 0  0.84375 0.046875 0  0.859375 0.046875 0  0.875 0.046875 0  0.890625 0.046875 0  0.90625 0.046875 0  0.921875 0.046875 0  0.9375 0.046875 0  0.953125 0.046875 0  0.96875 0.046875 0  0.984375 0.046875 0  1 0.046875 0  0 0.0625 0  0.015625 0.0625 0  0.03125 0.0625 0  0.046875 0.0625 0  0.0625 0.0625 0  0.078125 0.0625 0  0.09375 0.0625 0  0.109375 0.0625 0  0.125 0.0625 0  0.140625 0.0625 0  0.15625 0.0625 0  0.171875 0.0625 0  0.1875 0.0625 0  0.203125 0.0625 0  0.21875 0.0625 0  0.234375 0.0625 0  0.25 0.0625 0  0.265625 0.0625 0  0.28125 0.0625 0  0.296875 0.0625 0  0.3125 0.0625 0  0.328125 0.0625 0  0.34375 0.0625 0  0.359375 0.0625 0  0.375 0.0625 0  0.390625 0.0625 0  0.40625 0.0625 0  0.421875 0.0625 0  0.4375 0.0625 0  0.453125 0.0625 0  0.46875 0.0625 0  0.484375 0.0625 0  0.5 0.0625 0  0.515625 0.0625 0  0.53125 0.0625 0  0.546875 0.0625 0  0.5625 0.0625 0  0.578125 0.0625 0  0.59375 0.0625 0  0.609375 0.0625 0  0.625 0.0625 0  0.640625 0.0625 0  0.65625 0.0625 0  0.671875 0.0625 0  0.6875 0.0625 0  0.703125 0.0625 0  0.71875 0.0625 0  0.734375 0.0625 0  0.75 0.0625 0  0.765625 0.0625 0  0.78125 0.0625 0  0.796875 0.0625 0  0.8125 0.0625 0  0.828125 0.0625 0  0.84375 0.0625 0  0.859375 0.0625 0  0.875 0.0625 0  0.890625 0.0625 0  0.90625 0.0625 0  0.921875 0.0625 0  0.9375 0.0625 0  0.953125 0.0625 0  0.96875 0.0625 0  0.984375 0.0625 0  1 0.0625 0  0 0.078125 0  0.015625 0.078125 0  0.03125 0.078125 0  0.046875 0.078125 0  0.0625 0.078125 0  0.078125 0.078125 0  0.09375 0.078125 0  0.109375 0.078125 0  0.125 0.078125 0  0.140625 0.078125 0  0.15625 0.078125 0  0.171875 0.078125 0  0.1875 0.078125 0  0.203125 0.078125 0  0.21875 0.078125 0  0.234375 0.078125 0  0.25 0.078125 0  0.265625 0.078125 0  0.28125 0.078125 0  0.296875 0.078125 0  0.3125 0.078125 0  0.328125 0.078125 0  0.34375 0.078125 0  0.359375 0.078125 0  0.375 0.078125 0  0.390625 0.078125 0  0.40625 0.078125 0  0.421875 0.078125 0  0.4375 0.078125 0  0.453125 0.078125 0  0.46875 0.078125 0  0.484375 0.078125 0  0.5 0.078125 0  0.515625 0.078125 0  0.53125 0.078125 0  0.546875 0.078125 0  0.5625 0.078125 0  0.578125 0.078125 0  0.59375 0.078125 0  0.609375 0.078125 0  0.625 0.078125 0  0.640625 0.078125 0  0.65625 0.078125 0  0.671875 0.078125 0  0.6875 0.078125 0  0.703125 0.078125 0  0.71875 0.078125 0  0.734375 0.078125 0  0.75 0.078125 0  0.765625 0.078125 0  0.78125 0.078125 0  0.796875 0.078125 0  0.8125 0.078125 0  0.828125 0.078125 0  0.84375 0.078125 0  0.859375 0.078125 0  0.875 0.078125 0  0.890625 0.078125 0  0.90625 0.078125 0  0.921875 0.078125 0  0.9375 0.078125 0  0.953125 0.078125 0  0.96875 0.078125 0  0.984375 0.078125 0  1 0.078125 0  0 0.09375 0  0.015625 0.09375 0  0.03125 0.09375 0  0.046875 0.09375 0  0.0625 0.09375 0  0.078125 0.09375 0  0.09375 0.09375 0  0.109375 0.09375 0  0.125 0.09375 0  0.140625 0.09375 0  0.15625 0.09375 0  0.171875 0.09375 0  0.1875 0.09375 0  0.203125 0.09375 0  0.21875 0.09375 0  0.234375 0.09375 0  0.25 0.09375 0  0.265625 0.09375 0  0.28125 0.09375 0  0.296875 0.09375 0  0.3125 0.09375 0  0.328125 0.09375 0  0.34375 0.09375 0  0.359375 0.09375 0  0.375 0.09375 0  0.390625 0.09375 0  0.40625 0.09375 0  0.421875 0.09375 0  0.4375 0.09375 0  0.453125 0.09375 0  0.46875 0.09375 0  0.484375 0.09375 0  0.5 0.09375 0  0.515625 0.09375 0  0.53125 0.09375 0  0.546875 0.09375 0  0.5625 0.09375 0  0.578125 0.09375 0  0.59375 0.09375 0  0.609375 0.09375 0  0.625 0.09375 0  0.640625 0.09375 0  0.65625 0.09375 0  0.671875 0.09375 0  0.6875 0.09375 0  0.703125 0.09375 0  0.71875 0.09375 0  0.734375 0.09375 0  0.75 0.09375 0  0.765625 0.09375 0  0.78125 0.09375 0  0.796875 0.09375 0  0.8125 0.09375 0  0.828125 0.09375 0  0.84375 0.09375 0  0.859375 0.09375 0  0.875 0.09375 0  0.890625 0.09375 0  0.90625 0.09375 0  0.921875 0.09375 0  0.9375 0.09375 0  0.953125 0.09375 0  0.96875 0.09375 0  0.984375 0.09375 0  1 0.09375 0  0 0.109375 0  0.015625 0.109375 0  0.03125 0.109375 0  0.046875 0.109375 0  0.0625 0.109375 0  0.078125 0.109375 0  0.09375 0.109375 0  0.109375 0.109375 0  0.125 0.109375 0  0.140625 0.109375 0  0.15625 0.109375 0  0.171875 0.109375 0  0.1875 0.109375 0  0.203125 0.109375 0  0.21875 0.109375 0  0.234375 0.109375 0  0.25 0.109375 0  0.265625 0.109375 0  0.28125 0.109375 0  0.296875 0.109375 0  0.3125 0.109375 0  0.328125 0.109375 0  0.34375 0.109375 0  0.359375 0.109375 0  0.375 0.109375 0  0.390625 0.109375 0  0.40625 0.109375 0  0.421875 0.109375 0  0.4375 0.109375 0  0.453125 0.109375 0  0.46875 0.109375 0  0.484375 0.109375 0  0.5 0.109375 0  0.515625 0.109375 0  0.53125 0.109375 0  0.546875 0.109375 0  0.5625 0.109375 0  0.578125 0.109375 0  0.59375 0.109375 0  0.609375 0.109375 0  0.625 0.109375 0  0.640625 0.109375 0  0.65625 0.109375 0  0.671875 0.109375 0  0.6875 0.109375 0  0.703125 0.109375 0  0.71875 0.109375 0  0.734375 0.109375 0  0.75 0.109375 0  0.765625 0.109375 0  0.78125 0.109375 0  0.796875 0.109375 0  0.8125 0.109375 0  0.828125 0.109375 0  0.84375 0.109375 0  0.859375 0.109375 0  0.875 0.109375 0  0.890625 0.109375 0  0.90625 0.109375 0  0.921875 0.109375 0  0.9375 0.109375 0  0.953125 0.109375 0  0.96875 0.109375 0  0.984375 0.109375 0  1 0.109375 0  0 0.125 0  0.015625 0.125 0  0.03125 0.125 0  0.046875 0.125 0  0.0625 0.125 0  0.078125 0.125 0  0.09375 0.125 0  0.109375 0.125 0  0.125 0.12
[...]
<PointData  Scalars="gamma"> 
<DataArray  type="Float64"  Name="gamma"  format="ascii">4.0156530973225749e+03  4.0150484913250466e+03  4.0142532921474135e+03  4.0132723459919735e+03  4.0121153248902074e+03  4.0107968217460443e+03  4.0093363025116537e+03  4.0077579084684412e+03  4.0060901067460632e+03  4.0043651926290158e+03  4.0026186526365432e+03  4.0008884025795141e+03  3.9992139195730488e+03  3.9976352911172867e+03  3.9961922076878632e+03  3.9949229276822830e+03  3.9938632449745019e+03  3.9930454897099812e+03  3.9924975923426209e+03  3.9922422393261827e+03  3.9922961464093323e+03  3.9926694722508901e+03  3.9933653911908486e+03  3.9943798396118032e+03  3.9957014455361923e+03  3.9973116460580700e+03  3.9991849920323994e+03  4.0012896342655658e+03  4.0035879803909138e+03  4.0060375067940058e+03  4.0085917054943152e+03  4.0112011419123542e+03  4.0138145960703314e+03  4.0163802571015726e+03  4.0188469390808036e+03  4.0211652852208667e+03  4.0232889274774752e+03  4.0251755696011182e+03  4.0267879636803186e+03  4.0280947532020155e+03  4.0290711595419898e+03  4.0296994934798754e+03  4.0299694786604923e+03  4.0298783797142123e+03  4.0294309337965433e+03  4.0286390903877468e+03  4.0275215700786043e+03  4.0261032585360240e+03  4.0244144566872606e+03  4.0224900122069107e+03  4.0203683604956523e+03  4.0180905054054242e+03  4.0156989709400113e+03  4.0132367550374142e+03  4.0107463153607773e+03  4.0082686148693106e+03  4.0058422519261503e+03  4.0035026959716251e+03  4.0012816455135071e+03  3.9992065205387512e+03  3.9973000966169111e+03  3.9955802831243432e+03  3.9940600433421191e+03  3.9927474498264273e+03  3.9916458645561961e+03  4.0164698151239386e+03  4.0158816051050489e+03  4.0150974372795040e+03  4.0141218370700321e+03  4.0129642574304339e+03  4.0116391843641400e+03  4.0101660967633970e+03  4.0085692731746526e+03  4.0068774433708513e+03  4.0051232881575588e+03  4.0033427964134944e+03  4.0015744937224754e+03  3.9998585618613347e+03  3.9982358726617335e+03  3.9967469631941767e+03  3.9954309817052363e+03  3.9943246351967773e+03  3.9934611699395086e+03  3.9928694155775934e+03  3.9925729218604383e+03  3.9925892145177618e+03  3.9929291934836788e+03  3.9935966926994638e+03  3.9945882162160528e+03  3.9958928604126054e+03  3.9974924269823432e+03  3.9993617260446840e+03  4.0014690634534750e+03  4.0037769012123326e+03  4.0062426750050822e+03  4.0088197483259696e+03  4.0114584786727573e+03  4.0141073678647626e+03  4.0167142658797320e+03  4.0192275957700458e+03  4.0215975663057343e+03  4.0237773390627003e+03  4.0257241177644169e+03  4.0274001297951932e+03  4.0287734728957676e+03  4.0298188040496725e+03  4.0305178523534651e+03  4.0308597430797240e+03  4.0308411260007824e+03  4.0304661071312994e+03  4.0297459891423787e+03  4.0286988315690423e+03  4.0273488473548446e+03  4.0257256570500640e+03  4.0238634259306482e+03  4.0217999122989909e+03  4.0195754571733573e+03  4.0172319464256157e+03  4.0148117761891990e+03  4.0123568510780151e+03  4.0099076425198527e+03  4.0075023314363698e+03  4.0051760557445364e+03  4.0029602788787652e+03  4.0008822909171613e+03  3.9989648491205717e+03  3.9972259599367567e+03  3.9956787999511334e+03  3.9943317690317876e+03  3.9931886651515902e+03  4.0172738409383937e+03  4.0167114186463400e+03  4.0159487172414160e+03  4.0149898429486457e+03  4.0138439008349301e+03  4.0125251116624181e+03  4.0110527811681573e+03  4.0094511140021477e+03  4.0077488699131941e+03  4.0059788654159229e+03  4.0041773298543912e+03  4.0023831302474728e+03  4.0006368843210130e+03  3.9989799854902653e+03  3.9974535670791215e+03  3.9960974356206152e+03  3.9949490045954130e+03  3.9940422603996662e+03  3.9934067917049265e+03  3.9930669117351426e+03  3.9930409004262997e+03  3.9933403900646636e+03  3.9939699139479512e+03  3.9949266330174910e+03  3.9962002504094326e+03  3.9977731186100486e+03  3.9996205385122576e+03  4.0017112442926286e+03  4.0040080627922412e+03  4.0064687311203488e+03  4.0090468516342157e+03  4.0116929594064964e+03  4.0143556738934958e+03  4.0169829038765192e+03  4.0195230729652490e+03  4.0219263321101348e+03  4.0241457257299576e+03  4.0261382792510440e+03  4.0278659780709700e+03  4.0292966111578348e+03  4.0304044565912468e+03  4.0311707912176344e+03  4.0315842120680927e+03  4.0316407630782824e+03  4.0313438667410314e+03  4.0307040663848002e+03  4.0297385905755841e+03  4.0284707564671221e+03  4.0269292335771052e+03  4.0251471932793406e+03  4.0231613721465992e+03  4.0210110790734775e+03  4.0187371768173034e+03  4.0163810682287180e+03  4.0139837160568800e+03  4.0115847229009987e+03  4.0092214947663533e+03  4.0069285079202682e+03  4.0047366944997157e+03  4.0026729577741562e+03  4.0007598232929936e+03  3.9990152275191722e+03  3.9974524411298498e+03  3.9960801200962565e+03  3.9949024740616346e+03  4.0180590305754317e+03  4.0175321841846358e+03  4.0168018719356755e+03  4.0158716798827131e+03  4.0147502318085785e+03  4.0134513182786832e+03  4.0119938772034916e+03  4.0104018177609310e+03  4.0087036849342585e+03  4.0069321676285381e+03  4.0051234590882123e+03  4.0033164838945468e+03  4.0015520109324439e+03  3.9998716761646879e+03  3.9983169426586505e+03  3.9969280279416057e+03  3.9957428303312463e+03  3.9947958863628933e+03  3.9941173908265223e+03  3.9937323092887091e+03  3.9936596103947472e+03  3.9939116418378194e+03  3.9944936697761632e+03  3.9954035968166254e+03  3.9966318686091968e+03  3.9981615737574080e+03  3.9999687362871059e+03  4.0020227944709413e+03  4.0042872545145783e+03  4.0067205026068655e+03  4.0092767542508141e+03  4.0119071157523681e+03  4.0145607293712796e+03  4.0171859710456224e+03  4.0197316678878547e+03  4.0221483018960416e+03  4.0243891665838714e+03  4.0264114445312989e+03  4.0281771761818154e+03  4.0296540935104654e+03  4.0308162963659024e+03  4.0316447542172173e+03  4.0321276215432863e+03  4.0322603609909124e+03  4.0320456744794246e+03  4.0314932484149517e+03  4.0306193248699583e+03  4.0294461157684168e+03  4.0280010816036252e+03  4.0263160998465896e+03  4.0244265508608778e+03  4.0223703507525156e+03  4.0201869611252214e+03  4.0179164052023298e+03  4.0155983182799282e+03  4.0132710580911248e+03  4.0109708975193757e+03  4.0087313183525744e+03  4.0065824205867634e+03  4.0045504573431804e+03  4.0026575009283451e+03  4.0009212411102758e+03  3.9993549124577376e+03  3.9979673437294009e+03  3.9967631189203057e+03  4.0188186113707425e+03  4.0183373356655184e+03  4.0176506177497140e+03  4.0167614218712833e+03  4.0156777549382541e+03  4.0144128086322171e+03  4.0129849531332816e+03  4.0114175739189413e+03  4.0097387485129220e+03  4.0079807657955166e+03  4.0061794962907670e+03  4.0043736274606181e+03  4.0026037832156808e+03  4.0009115513753668e+03  3.9993384464927035e+03  3.9979248381618622e+03  3.9967088765600447e+03  3.9957254475010432e+03  3.9950051887048176e+03  3.9945735973677097e+03  3.9944502565385433e+03  3.9946482043810415e+03  3.9951734662654985e+03  3.9960247649266125e+03  3.9971934187990810e+03  3.9986634332480362e+03  4.0004117838959373e+03  4.0024088857561246e+03  4.0046192365574893e+03  4.0070022176226248e+03  4.0095130310777404e+03  4.0121037481559238e+03  4.0147244400286258e+03  4.0173243600753144e+03  4.0198531448750250e+03  4.0222620005517792e+03  4.0245048414778598e+03  4.0265393497513242e+03  4.0283279262966257e+03  4.0298385078292426e+03  4.0310452281755661e+03  4.0319289074075950e+03  4.0324773577635101e+03  4.0326855011776934e+03  4.0325552992170337e+03  4.0320955020865745e+03  4.0313212289032954e+03  4.0302533964339264e+03  4.0289180177692924e+03  4.0273453958164996e+03  4.0255692389255009e+03  4.0236257273675283e+03  4.0215525597352776e+03  4.0193880076690057e+03  4.0171700057002381e+03  4.0149353005520197e+03  4.0127186810759858e+03  4.0105523062963953e+03  4.0084651449361536e+03  4.0064825354902614e+03  4.0046258715557333e+03  4.0029124128820922e+03  4.0013552186169813e+03  3.9999631956124140e+03  3.9987412515321430e+03  4.0195451447788823e+03  4.0191194297079242e+03  4.0184875646574515e+03  4.0176517918121913e+03  4.0166193660186914e+03  4.0154027107971119e+03  4.0140194271155456e+03  4.0124921459910634e+03  4.0108482213661723e+03  4.0091192654353954e+03  4.0073405344111820e+03  4.0055501783628033e+03  4.0037883739875138e+03  4.0020963637554855e+03  4.0005154286199854e+03  3.9990858242579015e+03  3.9978457125084824e+03  3.9968301202665534e+03  3.9960699575656595e+03  3.9955911250054410e+03  3.9954137381213686e+03  3.9955514928775942e+03  3.9960111923188797e+03  3.9967924496919495e+03  3.9978875781928946e+03  3.9992816720701057e+03  4.0009528782648563e+03  4.0028728522544784e+03  4.0050073864227115e+03  4.0073171942608915e+03  4.0097588291399229e+03  4.0122857124182256e+03  4.0148492423880339e+03  4.0173999531223330e+03  4.0198886907608799e+03  4.0222677742371229e+03  4.0244921079408059e+03  4.0265202153423365e+03  4.0283151651453254e+03  4.0298453650134043e+03  4.0310852022265362e+03  4.0320155156124761e+03  4.0326238885902826e+03  4.0329047589490233e+03  4.0328593468449867e+03  4.0324954082093300e+03  4.0318268260966729e+03  4.0308730572736531e+03  4.0296584553730531e+03  4.0282114950885184e+03  4.0265639240640999e+03  4.0247498702942517e+03  4.0228049329915084e+03  4.0207652840424034e+03  4.0186668054375818e+03  4.0165442855426013e+03  4.0144306939097796e+03  4.0123565506740829e+03  4.0103494025919367e+03  4.0084334136369853e+03  4.0066290739217347e+03  4.0049530267179625e+03  4.0034180096348023e+03  4.0020329026948907e+03  4.0008028732167445e+03  4.0202305139021591e+03  4.0198701167628501e+03  4.0193041691229755e+03  4.0185340943551219e+03  4.0175662631914442e+03  4.0164121644386883e+03  4.0150884306646499e+03  4.0136167095117307e+03  4.0120233766090651e+03  4.0103390917334495e+03  4.0085982056600769e+03  4.0068380307889611e+03  4.0050979938820237e+03  4.0034186938717421e+03  4.0018408915121054e+03  4.0004044604871547e+03  3.9991473313714359e+03  3.9981044605010547e+03  3.9973068553636267e+03  3.9967806865947155e+03  3.9965465141596615e+03  3.9966186519151179e+03  3.9970046906180764e+03  3.9977051947297323e+03  3.9987135832031454e+03  4.0000161990060415e+03  4.0015925665716381e+03  4.0034158308468177e+03  4.0054533662702602e+03  4.0076675390106420e+03  4.0100166012681616e+03  4.0124556925254165e+03  4.0149379194494950e+03  4.0174154838052241e+03  4.0198408263297952e+03  4.0221677541067234e+03  4.0243525195973643e+03  4.0263548211409793e+03  4.0281386973807553e+03  4.0296732916340611e+03  4.0309334665813426e+03  4.0319002546438724e+03  4.0325611348696525e+03  4.0329101328403567e+03  4.0329477458291453e+03  4.0326807009570248e+03  4.0321215592020976e+03  4.0312881826204862e+03  4.0302030858796898e+03  4.0288926960624813e+03  4.0273865465932481e+03  4.0257164320353877e+03  4.0239155504193582e+03  4.0220176587394340e+03  4.0200562653931570e+03  4.0180638807506834e+03  4.0160713438739003e+03  4.0141072398134156e+03  4.0121974180574853e+03  4.0103646187512936e+03  4.0086282094003068e+03  4.0070040310567560e+03  4.0055043495846708e+03  4.0041379046064071e+03  4.0029100462292240e+03  4.0208659439081084e+03  4.0205801514941263e+03  4.0200907329704082e+03  4.0193982018090464e+03  4.0185079184895212e+03  4.0174302766752667e+03  4.0161807476197714e+03  4.0147797730378425e+03  4.0132525018852753e+03  4.0116283720836891e+03  4.0099405439599977e+03  4.0082251977862311e+03  4.0065207130555677e+03  4.0048667517851804e+03  4.0033032719993075e+03  4.0018695004622577e+03  4.0006028955945753e+03  3.9995381322603844e+03  3.9987061397534912e+03  3.9981332228729057e+03  3.9978402935427989e+03  3.9978422371068054e+03  3.9981474333448054e+03  3.9987574475706683e+03  3.9996669020302866e+03  4.0008635323932035e+03  4.0023284285815366e+03  4.0040364536679090e+03  4.0059568292572253e+03  4.0080538707976107e+03  4.0102878517890363e+03  4.0126159720103469e+03  4.0149934017905107e+03  4.0173743721153774e+03  4.0197132790731434e+03  4.0219657708593159e+03  4.0240897863125533e+03  4.0260465157270687e+03  4.0278012574366094e+03  4.0293241473001262e+03  4.0305907426117665e+03  4.0315824469443592e+03  4.0322867678242665e+03  4.0326974047147892e+03  4.0328141703345314e+03  4.0326427536376241e+03  4.0321943376293843e+03  4.0314850894028896e+03  4.0305355432111455e+03  4.0293698999280437e+03  4.0280152678351265e+03  4.0265008702817390e+03  4.0248572454288719e+03  4.0231154620675084e+03  4.0213063735006062e+03  4.0194599288211130e+03  4.0176045577527775e+03  4.0157666417029195e+03  4.0139700799663019e+03  4.0122359562717656e+03  4.0105823072223029e+03  4.0090239907727469e+03  4.0075726498252102e+03  4.0062367633865056e+03  4.0050217755857161e+03  4.0214420625262323e+03  4.0212394504716672e+03  4.0208364572625123e+03  4.0202326031453781e+03  4.0194321208672313e+03  4.0184441580139919e+03  4.0172828418585873e+03  4.0159671965213579e+03  4.0145209073061228e+03  4.0129719325461415e+03  4.0113519689351210e+03  4.0096957818776482e+03  4.0080404176228708e+03  4.0064243186147401e+03  4.0048863674017421e+03  4.0034648874389600e+03  4.0021966310724333e+03  4.0011157858565789e+03  4.0002530301056809e+03  3.9996346672517557e+03  3.9992818662452719e+03  3.9992100319971910e+03  3.9994283258510995e+03  3.9999393514413246e+03  4.0007390161969934e+03  4.0018165733590563e+03  4.0031548438553459e+03  4.0047306118945321e+03  4.0065151828564130e+03  4.0084750871308456e+03  4.0105729091402318e+03  4.0127682170096809e+03  4.0150185653492663e+03  4.0172805414900449e+03  4.0195108243518234e+03  4.0216672249692751e+03  4.0237096785831518e+03  4.0256011600964980e+03  4.0273084975430947e+03  4.0288030619174929e+03  4.0300613161353035e+03  4.0310652108577888e+03  4.0318024202289503e+03  4.0322664160221725e+03  4.0324563840571318e+03  4.0323769918115258e+03  4.0320380207187900e+03  4.0314538805416969e+03  4.0306430263076850e+03  4.0296273004915543e+03  4.0284312243862946e+03  4.0270812629102406e+03  4.0256050864985123e+03  4.0240308522973974e+03  4.0223865247325480e+03  4.0206992527904458e+03  4.0189948181881377e+03  4.0172971651666426e+03  4.0156280190857415e+03  4.0140065974711642e+03  4.0124494138045325e+03  4.0109701712680794e+03  4.0095797409543839e+03  4.0082862167963681e+03  4.0070950377100739e+03  4.0219490064477482e+03  4.0218372036699220e+03  4.0215295583901966e+03  4.0210245240459235e+03  4.0203250994448840e+03  4.0194390478996538e+03  4.0183789841274261e+03  4.0171623182713947e+03  4.0158110512752028e+03  4.0143514211542119e+03  4.0128134052239693e+03  4.0112300888211957e+03  4.0096369162408027e+03  4.0080708442835976e+03  4.0065694227606732e+03  4.0051698293668264e+03  4.0039078883961979e+03  4.0028171037567035e+03  4.0019277366224178e+03  4.0012659568679901e+03  4.0008530952207389e+03  4.0007050199435125e+03  4.0008316579515281e+03  4.0012366757164646e+03  4.0019173302819918e+03  4.0028644953756980e+03  4.0040628621254368e+03  4.0054913084455939e+03  4.0071234259195667e+03  4.0089281881317115e+03  4.0108707400491107e+03  4.0129132843624820e+03  4.0150160377918069e+03  4.0171382283503563e+03  4.0192391035191745e+03  4.0212789192600271e+03  4.0232198807998325e+03  4.0250270081258050e+03  4.0266689020691874e+03  4.0281183906170741e+03  4.0293530395296398e+03  4.0303555162752700e+03  4.0311138015260635e+03  4.0316212477644390e+03  4.0318764897188880e+03  4.0318832161631176e+03  4.0316498168877824e+03  4.0311889222278269e+03  4.0305168552791306e+03  4.0296530187870603e+03  4.0286192396039514e+03  4.0274390936050763e+03  4.0261372330783902e+03  4.0247387369541880e+03  4.0232685019384035e+03  4.0217506898006964e+03  4.0202082429012048e+03  4.0186624766772206e+03  4.0171327544079336e+03  4.0156362462752109e+03  4.0141877716671534e+03  4.0127997209333612e+03  4.0114820504763734e+03  4.0102423432067944e+03  4.0090859250286599e+03  4.0223765774971321e+03  4.0223620440290038e+03  4.0221574510463456e+03  4.0217601231124440e+03  4.0211717325557693e+03  4.0203985359611088e+03  4.0194514845949534e+03  4.0183461976587614e+03  4.0171027919182102e+03  4.0157455663759097e+03  4.0143025460166346e+03  4.0128048940193016e+03  4.0112862069577504e+03  4.0097817121735293e+03  4.0083273904930847e+03  4.0069590506083982e+03  4.0057113836158355e+03  4.0046170273312873e+03  4.0037056700371299e+03  4.0030032222811196e+03  4.0025310832944460e+03  4.0023055256177590e+03  4.0023372177418473e+03  4.0026309001284990e+03  4.0031852250378174e+03  4.0039927653221371e+03  4.0050401919301862e+03  4.0063086144756971e+03  4.0077740740370577e+03  4.0094081725373744e+03  4.0111788187662910e+03  4.0130510674911852e+03  4.0149880252928524e+03  4.0169517948531688e+03  4.0189044284948463e+03  4.0208088618680658e+03  4.0226297997996826e+03  4.0243345284310813e+03  4.0258936307922163e+03  4.0272815867727204e+03  4.0284772429003438e+03  4.0294641422360960e+03  4.0302307098364090e+03  4.0307702943963704e+03  4.0310810716560341e+03  4.0311658197177312e+03  4.0310315804033803e+03  4.0306892240271777e+03  4.0301529373615513e+03  4.0294396560685691e+03  4.0285684634379541e+03  4.0275599769447076e+03  4.0264357429842084e+03  4.0252176582660027e+03  4.0239274338824803e+03  4.0225861151669224e+03  4.0212136672781708e+03  4.0198286331576164e+03  4.0184478672517525e+03  4.0170863453182751e+03  4.0157570478530852e+03  4.0144709122821791e+03  4.0132368471219061e+03  4.0120617998611924e+03  4.0109508693709881e+03  4.0227144499611331e+03  4.0228022765325682e+03  4.0227069996194914e+03  4.0224247658714685e+03  4.0219558443475644e+03  4.0213048808500580e+03  4.0204810331944254e+03  4.0194979758291624e+03  4.0183737666191546e+03  4.0171305735009773e+03  4.0157942638967515e+03  4.0143938650051955e+03  4.0129609081388985e+03  4.0115286749180032e+03  4.0101313671551043e+03  4.0088032254981899e+03  4.0075776242011157e+03  4.0064861706725496e+03  4.0055578386696670e+03  4.0048181631536313e+03  4.0042885229549456e+03  4.0039855345912010e+03  4.0039205769529713e+03  4.0040994622665035e+03  4.0045222639142798e+03  4.0051833065192627e+03  4.0060713183557041e+03  4.0071697408214823e+03  4.0084571845746377e+03  4.0099080171747109e+03  4.0114930628417924e+03  4.0131803914019101e+03  4.0149361707556050e+03  4.0167255553909113e+03  4.0185135826354172e+03  4.0202660485418714e+03  4.0219503365253918e+03  4.0235361740729199e+03  4.0249962959395993e+03  4.0263069961038227e+03  4.0274485552082383e+03  4.0284055350743693e+03  4.0291669369304682e+03  4.0297262250139643e+03  4.0300812219831241e+03  4.0302338868943853e+03  4.0301899901960328e+03  4.0299587031150454e+03  4.0295521208746795e+03  4.0289847403251797e+03  4.0282729127965531e+03  4.0274342923341474e+03  4.0264872980397336e+03  4.0254506071320197e+03  4.0243426927058777e+03  4.0231814171699193e+03  4.0219836891447612e+03  4.0207651883734302e+03  4.0195401600834275e+03  4.0183212773807027e+03  4.0171195677585447e+03  4.0159443977505675e+03  4.0148035081979701e+03  4.0137030915586274e+03  4.0126479021524101e+03  4.0229524275520234e+03  4.0231461649996895e+03  4.0231648359233018e+03  4.0230033742143146e+03  4.0226605863151112e+03  4.0221394238073158e+03  4.0214471446775424e+03  4.0205953511742759e+03  4.0195998962848944e+03  4.0184806555030755e+03  4.0172611655262513e+03  4.0159681366009536e+03  4.0146308501921035e+03  4.0132804582655040e+03  4.0119492045320962e+03  4.0106695913263038e+03  4.0094735182334612e+03  4.0083914200397730e+03  4.0074514319949558e+03  4.0066786097413160e+03  4.0060942296062799e+03  4.0057151923510678e+03  4.0055535500237056e+03  4.0056161714157033e+03  4.0059045569261880e+03  4.0064148085685406e+03  4.0071377555957656e+03  4.0080592309594927e+03  4.0091604887403278e+03  4.0104187479751345e+03  4.0118078441297398e+03  4.0132989659773366e+03  4.0148614529755737e+03  4.0164636264936053e+03  4.0180736274958331e+03  4.0196602335754087e+03  4.0211936295396140e+03  4.0226461080290874e+03  4.0239926798076253e+03  4.0252115772520515e+03  4.0262846390295026e+03  4.0271975687717145e+03  4.0279400655237687e+03  4.0285058286334856e+03  4.0288924443384681e+03  4.0291011654004374e+03  4.0291365985601788e+03  4.0290063172090704e+03  4.0287204184080556e+03  4.028291044194254